  18  18   1   0
  0.4444444E+03  0.2000000E-08  0.2000000E-08  0.2000000E-08  0.5000000E-15
  1.000000000000000E-004
  CAR 
 VaspCalc                                
      1.87723950    -27.13152874  301     -6.33888975      1.00000000
    -27.132  0.0000E+00  0.0000E+00
    -27.035  0.0000E+00  0.0000E+00
    -26.938  0.0000E+00  0.0000E+00
    -26.841  0.0000E+00  0.0000E+00
    -26.745  0.0000E+00  0.0000E+00
    -26.648  0.0000E+00  0.0000E+00
    -26.551  0.0000E+00  0.0000E+00
    -26.455  0.0000E+00  0.0000E+00
    -26.358  0.1788E-12  0.1718E-13
    -26.261  0.2867E-08  0.2757E-09
    -26.165  0.7624E-05  0.7340E-06
    -26.068  0.3410E-02  0.3291E-03
    -25.971  0.2643E+00  0.2578E-01
    -25.874  0.3740E+01  0.3861E+00
    -25.778  0.1041E+02  0.1389E+01
    -25.681  0.6828E+01  0.2046E+01
    -25.584  0.4471E+01  0.2475E+01
    -25.488  0.7158E+01  0.3163E+01
    -25.391  0.9565E+01  0.4082E+01
    -25.294  0.1012E+02  0.5056E+01
    -25.198  0.1015E+02  0.6033E+01
    -25.101  0.9324E+01  0.6930E+01
    -25.004  0.7988E+01  0.7699E+01
    -24.908  0.7927E+01  0.8462E+01
    -24.811  0.8161E+01  0.9249E+01
    -24.714  0.6888E+01  0.9912E+01
    -24.617  0.5411E+01  0.1043E+02
    -24.521  0.4424E+01  0.1086E+02
    -24.424  0.3849E+01  0.1124E+02
    -24.327  0.2947E+01  0.1152E+02
    -24.231  0.1923E+01  0.1171E+02
    -24.134  0.1347E+01  0.1184E+02
    -24.037  0.1033E+01  0.1194E+02
    -23.941  0.4933E+00  0.1199E+02
    -23.844  0.1175E+00  0.1200E+02
    -23.747  0.9862E-02  0.1200E+02
    -23.650  0.1934E-03  0.1200E+02
    -23.554  0.7054E-06  0.1200E+02
    -23.457  0.4299E-09  0.1200E+02
    -23.360  0.4148E-13  0.1200E+02
    -23.264  0.0000E+00  0.1200E+02
    -23.167  0.0000E+00  0.1200E+02
    -23.070  0.0000E+00  0.1200E+02
    -22.974  0.0000E+00  0.1200E+02
    -22.877  0.0000E+00  0.1200E+02
    -22.780  0.0000E+00  0.1200E+02
    -22.684  0.0000E+00  0.1200E+02
    -22.587  0.0000E+00  0.1200E+02
    -22.490  0.0000E+00  0.1200E+02
    -22.393  0.0000E+00  0.1200E+02
    -22.297  0.0000E+00  0.1200E+02
    -22.200  0.0000E+00  0.1200E+02
    -22.103  0.0000E+00  0.1200E+02
    -22.007  0.0000E+00  0.1200E+02
    -21.910  0.0000E+00  0.1200E+02
    -21.813  0.0000E+00  0.1200E+02
    -21.717  0.0000E+00  0.1200E+02
    -21.620  0.0000E+00  0.1200E+02
    -21.523  0.0000E+00  0.1200E+02
    -21.426  0.0000E+00  0.1200E+02
    -21.330  0.0000E+00  0.1200E+02
    -21.233  0.0000E+00  0.1200E+02
    -21.136  0.0000E+00  0.1200E+02
    -21.040  0.0000E+00  0.1200E+02
    -20.943  0.0000E+00  0.1200E+02
    -20.846  0.0000E+00  0.1200E+02
    -20.750  0.0000E+00  0.1200E+02
    -20.653  0.0000E+00  0.1200E+02
    -20.556  0.0000E+00  0.1200E+02
    -20.460  0.0000E+00  0.1200E+02
    -20.363  0.0000E+00  0.1200E+02
    -20.266  0.0000E+00  0.1200E+02
    -20.169  0.0000E+00  0.1200E+02
    -20.073  0.0000E+00  0.1200E+02
    -19.976  0.0000E+00  0.1200E+02
    -19.879  0.0000E+00  0.1200E+02
    -19.783  0.0000E+00  0.1200E+02
    -19.686  0.0000E+00  0.1200E+02
    -19.589  0.0000E+00  0.1200E+02
    -19.493  0.0000E+00  0.1200E+02
    -19.396  0.0000E+00  0.1200E+02
    -19.299  0.0000E+00  0.1200E+02
    -19.202  0.0000E+00  0.1200E+02
    -19.106  0.0000E+00  0.1200E+02
    -19.009  0.0000E+00  0.1200E+02
    -18.912  0.0000E+00  0.1200E+02
    -18.816  0.0000E+00  0.1200E+02
    -18.719  0.0000E+00  0.1200E+02
    -18.622  0.0000E+00  0.1200E+02
    -18.526  0.0000E+00  0.1200E+02
    -18.429  0.0000E+00  0.1200E+02
    -18.332  0.0000E+00  0.1200E+02
    -18.236  0.0000E+00  0.1200E+02
    -18.139  0.0000E+00  0.1200E+02
    -18.042  0.0000E+00  0.1200E+02
    -17.945  0.0000E+00  0.1200E+02
    -17.849  0.0000E+00  0.1200E+02
    -17.752  0.0000E+00  0.1200E+02
    -17.655  0.0000E+00  0.1200E+02
    -17.559  0.0000E+00  0.1200E+02
    -17.462  0.0000E+00  0.1200E+02
    -17.365  0.0000E+00  0.1200E+02
    -17.269  0.0000E+00  0.1200E+02
    -17.172  0.0000E+00  0.1200E+02
    -17.075  0.0000E+00  0.1200E+02
    -16.978  0.0000E+00  0.1200E+02
    -16.882  0.0000E+00  0.1200E+02
    -16.785  0.0000E+00  0.1200E+02
    -16.688  0.0000E+00  0.1200E+02
    -16.592  0.0000E+00  0.1200E+02
    -16.495  0.0000E+00  0.1200E+02
    -16.398  0.0000E+00  0.1200E+02
    -16.302  0.0000E+00  0.1200E+02
    -16.205  0.0000E+00  0.1200E+02
    -16.108  0.0000E+00  0.1200E+02
    -16.012  0.0000E+00  0.1200E+02
    -15.915  0.0000E+00  0.1200E+02
    -15.818  0.0000E+00  0.1200E+02
    -15.721  0.0000E+00  0.1200E+02
    -15.625  0.0000E+00  0.1200E+02
    -15.528  0.0000E+00  0.1200E+02
    -15.431  0.0000E+00  0.1200E+02
    -15.335  0.0000E+00  0.1200E+02
    -15.238  0.0000E+00  0.1200E+02
    -15.141  0.0000E+00  0.1200E+02
    -15.045  0.0000E+00  0.1200E+02
    -14.948  0.0000E+00  0.1200E+02
    -14.851  0.6316E-13  0.1200E+02
    -14.754  0.5354E-09  0.1200E+02
    -14.658  0.7400E-06  0.1200E+02
    -14.561  0.1755E-03  0.1200E+02
    -14.464  0.7981E-02  0.1200E+02
    -14.368  0.8658E-01  0.1201E+02
    -14.271  0.3244E+00  0.1204E+02
    -14.174  0.7221E+00  0.1211E+02
    -14.078  0.1250E+01  0.1223E+02
    -13.981  0.2035E+01  0.1243E+02
    -13.884  0.3154E+01  0.1273E+02
    -13.787  0.3796E+01  0.1310E+02
    -13.691  0.3679E+01  0.1345E+02
    -13.594  0.3501E+01  0.1379E+02
    -13.497  0.4423E+01  0.1421E+02
    -13.401  0.5809E+01  0.1477E+02
    -13.304  0.7571E+01  0.1550E+02
    -13.207  0.8449E+01  0.1631E+02
    -13.111  0.8537E+01  0.1714E+02
    -13.014  0.9011E+01  0.1800E+02
    -12.917  0.9308E+01  0.1890E+02
    -12.821  0.9002E+01  0.1977E+02
    -12.724  0.8206E+01  0.2056E+02
    -12.627  0.7446E+01  0.2127E+02
    -12.530  0.6798E+01  0.2193E+02
    -12.434  0.6243E+01  0.2253E+02
    -12.337  0.5787E+01  0.2309E+02
    -12.240  0.4315E+01  0.2351E+02
    -12.144  0.2766E+01  0.2377E+02
    -12.047  0.1458E+01  0.2392E+02
    -11.950  0.6518E+00  0.2398E+02
    -11.854  0.1923E+00  0.2400E+02
    -11.757  0.1926E-01  0.2400E+02
    -11.660  0.4419E-03  0.2400E+02
    -11.563  0.1937E-05  0.2400E+02
    -11.467  0.1488E-08  0.2400E+02
    -11.370  0.2133E-12  0.2400E+02
    -11.273  0.2734E-09  0.2400E+02
    -11.177  0.5655E-06  0.2400E+02
    -11.080  0.2018E-03  0.2400E+02
    -10.983  0.1353E-01  0.2400E+02
    -10.887  0.2031E+00  0.2402E+02
    -10.790  0.9670E+00  0.2411E+02
    -10.693  0.2534E+01  0.2436E+02
    -10.597  0.4809E+01  0.2482E+02
    -10.500  0.5739E+01  0.2538E+02
    -10.403  0.4211E+01  0.2578E+02
    -10.306  0.1843E+01  0.2596E+02
    -10.210  0.4072E+00  0.2600E+02
    -10.113  0.1003E+00  0.2601E+02
    -10.016  0.8334E+00  0.2609E+02
     -9.920  0.3609E+01  0.2643E+02
     -9.823  0.7057E+01  0.2711E+02
     -9.726  0.8030E+01  0.2789E+02
     -9.630  0.7588E+01  0.2862E+02
     -9.533  0.7011E+01  0.2929E+02
     -9.436  0.5686E+01  0.2984E+02
     -9.339  0.4527E+01  0.3028E+02
     -9.243  0.5443E+01  0.3080E+02
     -9.146  0.7897E+01  0.3156E+02
     -9.049  0.9060E+01  0.3243E+02
     -8.953  0.7548E+01  0.3316E+02
     -8.856  0.5540E+01  0.3370E+02
     -8.759  0.3248E+01  0.3401E+02
     -8.663  0.2770E+01  0.3428E+02
     -8.566  0.3572E+01  0.3462E+02
     -8.469  0.4007E+01  0.3501E+02
     -8.373  0.4588E+01  0.3545E+02
     -8.276  0.3708E+01  0.3581E+02
     -8.179  0.1673E+01  0.3597E+02
     -8.082  0.3860E+00  0.3601E+02
     -7.986  0.5906E+00  0.3606E+02
     -7.889  0.1602E+01  0.3622E+02
     -7.792  0.3953E+01  0.3660E+02
     -7.696  0.9405E+01  0.3751E+02
     -7.599  0.1202E+02  0.3866E+02
     -7.502  0.1247E+02  0.3986E+02
     -7.406  0.1329E+02  0.4114E+02
     -7.309  0.1074E+02  0.4218E+02
     -7.212  0.9673E+01  0.4311E+02
     -7.115  0.1161E+02  0.4422E+02
     -7.019  0.1075E+02  0.4526E+02
     -6.922  0.9085E+01  0.4613E+02
     -6.825  0.7767E+01  0.4688E+02
     -6.729  0.5663E+01  0.4743E+02
     -6.632  0.3445E+01  0.4776E+02
     -6.535  0.1665E+01  0.4793E+02
     -6.439  0.6409E+00  0.4799E+02
     -6.342  0.1179E+00  0.4800E+02
     -6.245  0.6182E-02  0.4800E+02
     -6.149  0.7045E-04  0.4800E+02
     -6.052  0.1510E-06  0.4800E+02
     -5.955  0.5608E-10  0.4800E+02
     -5.858  0.3443E-14  0.4800E+02
     -5.762  0.0000E+00  0.4800E+02
     -5.665  0.0000E+00  0.4800E+02
     -5.568  0.0000E+00  0.4800E+02
     -5.472  0.0000E+00  0.4800E+02
     -5.375  0.0000E+00  0.4800E+02
     -5.278  0.0000E+00  0.4800E+02
     -5.182  0.0000E+00  0.4800E+02
     -5.085  0.0000E+00  0.4800E+02
     -4.988  0.0000E+00  0.4800E+02
     -4.891  0.0000E+00  0.4800E+02
     -4.795  0.0000E+00  0.4800E+02
     -4.698  0.0000E+00  0.4800E+02
     -4.601  0.0000E+00  0.4800E+02
     -4.505  0.0000E+00  0.4800E+02
     -4.408  0.0000E+00  0.4800E+02
     -4.311  0.0000E+00  0.4800E+02
     -4.215  0.0000E+00  0.4800E+02
     -4.118  0.0000E+00  0.4800E+02
     -4.021  0.0000E+00  0.4800E+02
     -3.925  0.0000E+00  0.4800E+02
     -3.828  0.0000E+00  0.4800E+02
     -3.731  0.0000E+00  0.4800E+02
     -3.634  0.0000E+00  0.4800E+02
     -3.538  0.0000E+00  0.4800E+02
     -3.441  0.0000E+00  0.4800E+02
     -3.344  0.0000E+00  0.4800E+02
     -3.248  0.0000E+00  0.4800E+02
     -3.151  0.0000E+00  0.4800E+02
     -3.054  0.0000E+00  0.4800E+02
     -2.958  0.0000E+00  0.4800E+02
     -2.861  0.0000E+00  0.4800E+02
     -2.764  0.0000E+00  0.4800E+02
     -2.667  0.0000E+00  0.4800E+02
     -2.571  0.0000E+00  0.4800E+02
     -2.474  0.0000E+00  0.4800E+02
     -2.377  0.0000E+00  0.4800E+02
     -2.281  0.0000E+00  0.4800E+02
     -2.184  0.0000E+00  0.4800E+02
     -2.087  0.0000E+00  0.4800E+02
     -1.991  0.0000E+00  0.4800E+02
     -1.894  0.9885E-14  0.4800E+02
     -1.797  0.1584E-09  0.4800E+02
     -1.701  0.4606E-06  0.4800E+02
     -1.604  0.2551E-03  0.4800E+02
     -1.507  0.2870E-01  0.4800E+02
     -1.410  0.7194E+00  0.4807E+02
     -1.314  0.4571E+01  0.4851E+02
     -1.217  0.8625E+01  0.4934E+02
     -1.120  0.5538E+01  0.4988E+02
     -1.024  0.1199E+01  0.4999E+02
     -0.927  0.7502E-01  0.5000E+02
     -0.830  0.4825E-02  0.5000E+02
     -0.734  0.1906E+00  0.5002E+02
     -0.637  0.2488E+01  0.5026E+02
     -0.540  0.1029E+02  0.5125E+02
     -0.443  0.1633E+02  0.5282E+02
     -0.347  0.9996E+01  0.5379E+02
     -0.250  0.2757E+01  0.5405E+02
     -0.153  0.5260E+01  0.5456E+02
     -0.057  0.1064E+02  0.5558E+02
      0.040  0.1158E+02  0.5670E+02
      0.137  0.1325E+02  0.5798E+02
      0.233  0.1454E+02  0.5938E+02
      0.330  0.1881E+02  0.6119E+02
      0.427  0.3082E+02  0.6416E+02
      0.523  0.4514E+02  0.6851E+02
      0.620  0.2939E+02  0.7134E+02
      0.717  0.6489E+01  0.7196E+02
      0.814  0.3651E+00  0.7200E+02
      0.910  0.4198E-02  0.7200E+02
      1.007  0.8798E-05  0.7200E+02
      1.104  0.3184E-08  0.7200E+02
      1.200  0.1938E-12  0.7200E+02
      1.297  0.0000E+00  0.7200E+02
      1.394  0.0000E+00  0.7200E+02
      1.490  0.0000E+00  0.7200E+02
      1.587  0.0000E+00  0.7200E+02
      1.684  0.0000E+00  0.7200E+02
      1.781  0.0000E+00  0.7200E+02
      1.877  0.0000E+00  0.7200E+02
      1.88160999    -27.08915681  301     -6.32375615      1.00000000
    -27.089  0.0000E+00  0.0000E+00
    -26.993  0.0000E+00  0.0000E+00
    -26.896  0.0000E+00  0.0000E+00
    -26.799  0.0000E+00  0.0000E+00
    -26.703  0.0000E+00  0.0000E+00
    -26.606  0.0000E+00  0.0000E+00
    -26.510  0.0000E+00  0.0000E+00
    -26.413  0.0000E+00  0.0000E+00
    -26.317  0.2874E-15  0.2776E-16
    -26.220  0.5016E-11  0.4845E-12
    -26.123  0.1414E-07  0.1366E-08
    -26.027  0.6564E-05  0.6353E-06
    -25.930  0.5201E-03  0.5086E-04
    -25.834  0.7443E-02  0.7696E-03
    -25.737  0.2062E-01  0.2761E-02
    -25.641  0.1154E-01  0.3876E-02
    -25.544  0.1842E-02  0.4054E-02
    -25.447  0.7851E-02  0.4812E-02
    -25.351  0.2095E-01  0.6834E-02
    -25.254  0.1566E-01  0.8346E-02
    -25.158  0.1985E-01  0.1026E-01
    -25.061  0.1545E-01  0.1176E-01
    -24.965  0.5086E-02  0.1225E-01
    -24.868  0.2168E-01  0.1434E-01
    -24.771  0.4010E-01  0.1821E-01
    -24.675  0.1753E-01  0.1991E-01
    -24.578  0.9606E-02  0.2083E-01
    -24.482  0.2082E-01  0.2284E-01
    -24.385  0.1084E-01  0.2389E-01
    -24.289  0.1110E-02  0.2400E-01
    -24.192  0.2085E-04  0.2400E-01
    -24.096  0.6759E-07  0.2400E-01
    -23.999  0.3632E-10  0.2400E-01
    -23.902  0.3164E-14  0.2400E-01
    -23.806  0.0000E+00  0.2400E-01
    -23.709  0.0000E+00  0.2400E-01
    -23.613  0.0000E+00  0.2400E-01
    -23.516  0.0000E+00  0.2400E-01
    -23.420  0.0000E+00  0.2400E-01
    -23.323  0.0000E+00  0.2400E-01
    -23.226  0.0000E+00  0.2400E-01
    -23.130  0.0000E+00  0.2400E-01
    -23.033  0.0000E+00  0.2400E-01
    -22.937  0.0000E+00  0.2400E-01
    -22.840  0.0000E+00  0.2400E-01
    -22.744  0.0000E+00  0.2400E-01
    -22.647  0.0000E+00  0.2400E-01
    -22.550  0.0000E+00  0.2400E-01
    -22.454  0.0000E+00  0.2400E-01
    -22.357  0.0000E+00  0.2400E-01
    -22.261  0.0000E+00  0.2400E-01
    -22.164  0.0000E+00  0.2400E-01
    -22.068  0.0000E+00  0.2400E-01
    -21.971  0.0000E+00  0.2400E-01
    -21.874  0.0000E+00  0.2400E-01
    -21.778  0.0000E+00  0.2400E-01
    -21.681  0.0000E+00  0.2400E-01
    -21.585  0.0000E+00  0.2400E-01
    -21.488  0.0000E+00  0.2400E-01
    -21.392  0.0000E+00  0.2400E-01
    -21.295  0.0000E+00  0.2400E-01
    -21.198  0.0000E+00  0.2400E-01
    -21.102  0.0000E+00  0.2400E-01
    -21.005  0.0000E+00  0.2400E-01
    -20.909  0.0000E+00  0.2400E-01
    -20.812  0.0000E+00  0.2400E-01
    -20.716  0.0000E+00  0.2400E-01
    -20.619  0.0000E+00  0.2400E-01
    -20.522  0.0000E+00  0.2400E-01
    -20.426  0.0000E+00  0.2400E-01
    -20.329  0.0000E+00  0.2400E-01
    -20.233  0.0000E+00  0.2400E-01
    -20.136  0.0000E+00  0.2400E-01
    -20.040  0.0000E+00  0.2400E-01
    -19.943  0.0000E+00  0.2400E-01
    -19.846  0.0000E+00  0.2400E-01
    -19.750  0.0000E+00  0.2400E-01
    -19.653  0.0000E+00  0.2400E-01
    -19.557  0.0000E+00  0.2400E-01
    -19.460  0.0000E+00  0.2400E-01
    -19.364  0.0000E+00  0.2400E-01
    -19.267  0.0000E+00  0.2400E-01
    -19.170  0.0000E+00  0.2400E-01
    -19.074  0.0000E+00  0.2400E-01
    -18.977  0.0000E+00  0.2400E-01
    -18.881  0.0000E+00  0.2400E-01
    -18.784  0.0000E+00  0.2400E-01
    -18.688  0.0000E+00  0.2400E-01
    -18.591  0.0000E+00  0.2400E-01
    -18.494  0.0000E+00  0.2400E-01
    -18.398  0.0000E+00  0.2400E-01
    -18.301  0.0000E+00  0.2400E-01
    -18.205  0.0000E+00  0.2400E-01
    -18.108  0.0000E+00  0.2400E-01
    -18.012  0.0000E+00  0.2400E-01
    -17.915  0.0000E+00  0.2400E-01
    -17.819  0.0000E+00  0.2400E-01
    -17.722  0.0000E+00  0.2400E-01
    -17.625  0.0000E+00  0.2400E-01
    -17.529  0.0000E+00  0.2400E-01
    -17.432  0.0000E+00  0.2400E-01
    -17.336  0.0000E+00  0.2400E-01
    -17.239  0.0000E+00  0.2400E-01
    -17.143  0.0000E+00  0.2400E-01
    -17.046  0.0000E+00  0.2400E-01
    -16.949  0.0000E+00  0.2400E-01
    -16.853  0.0000E+00  0.2400E-01
    -16.756  0.0000E+00  0.2400E-01
    -16.660  0.0000E+00  0.2400E-01
    -16.563  0.0000E+00  0.2400E-01
    -16.467  0.0000E+00  0.2400E-01
    -16.370  0.0000E+00  0.2400E-01
    -16.273  0.0000E+00  0.2400E-01
    -16.177  0.0000E+00  0.2400E-01
    -16.080  0.0000E+00  0.2400E-01
    -15.984  0.0000E+00  0.2400E-01
    -15.887  0.0000E+00  0.2400E-01
    -15.791  0.0000E+00  0.2400E-01
    -15.694  0.0000E+00  0.2400E-01
    -15.597  0.0000E+00  0.2400E-01
    -15.501  0.0000E+00  0.2400E-01
    -15.404  0.0000E+00  0.2400E-01
    -15.308  0.0000E+00  0.2400E-01
    -15.211  0.0000E+00  0.2400E-01
    -15.115  0.0000E+00  0.2400E-01
    -15.018  0.0000E+00  0.2400E-01
    -14.921  0.0000E+00  0.2400E-01
    -14.825  0.0000E+00  0.2400E-01
    -14.728  0.0000E+00  0.2400E-01
    -14.632  0.0000E+00  0.2400E-01
    -14.535  0.0000E+00  0.2400E-01
    -14.439  0.3058E-15  0.2400E-01
    -14.342  0.5279E-11  0.2400E-01
    -14.245  0.1472E-07  0.2400E-01
    -14.149  0.6766E-05  0.2400E-01
    -14.052  0.5307E-03  0.2405E-01
    -13.956  0.7521E-02  0.2478E-01
    -13.859  0.2065E-01  0.2677E-01
    -13.763  0.1144E-01  0.2788E-01
    -13.666  0.1248E-02  0.2800E-01
    -13.569  0.1341E-03  0.2801E-01
    -13.473  0.3098E-02  0.2831E-01
    -13.376  0.1656E-01  0.2991E-01
    -13.280  0.1771E-01  0.3162E-01
    -13.183  0.4152E-02  0.3202E-01
    -13.087  0.6276E-02  0.3263E-01
    -12.990  0.2016E-01  0.3457E-01
    -12.893  0.1696E-01  0.3621E-01
    -12.797  0.1941E-01  0.3808E-01
    -12.700  0.1676E-01  0.3970E-01
    -12.604  0.6865E-02  0.4037E-01
    -12.507  0.2161E-01  0.4245E-01
    -12.411  0.3504E-01  0.4584E-01
    -12.314  0.1934E-01  0.4771E-01
    -12.217  0.2957E-02  0.4799E-01
    -12.121  0.9488E-04  0.4800E-01
    -12.024  0.5493E-06  0.4800E-01
    -11.928  0.5360E-09  0.4800E-01
    -11.831  0.8536E-13  0.4800E-01
    -11.735  0.0000E+00  0.4800E-01
    -11.638  0.0000E+00  0.4800E-01
    -11.542  0.0000E+00  0.4800E-01
    -11.445  0.0000E+00  0.4800E-01
    -11.348  0.0000E+00  0.4800E-01
    -11.252  0.7588E-16  0.4800E-01
    -11.155  0.1653E-11  0.4800E-01
    -11.059  0.5834E-08  0.4800E-01
    -10.962  0.3381E-05  0.4800E-01
    -10.866  0.3326E-03  0.4803E-01
    -10.769  0.5861E-02  0.4860E-01
    -10.672  0.1983E-01  0.5051E-01
    -10.576  0.1352E-01  0.5182E-01
    -10.479  0.1826E-02  0.5200E-01
    -10.383  0.4580E-04  0.5200E-01
    -10.286  0.2000E-06  0.5200E-01
    -10.190  0.6005E-07  0.5200E-01
    -10.093  0.1909E-04  0.5200E-01
     -9.996  0.1049E-02  0.5210E-01
     -9.900  0.1055E-01  0.5312E-01
     -9.803  0.2084E-01  0.5513E-01
     -9.707  0.8493E-02  0.5595E-01
     -9.610  0.4856E-02  0.5642E-01
     -9.514  0.1828E-01  0.5819E-01
     -9.417  0.1607E-01  0.5974E-01
     -9.320  0.6729E-02  0.6039E-01
     -9.224  0.1804E-01  0.6213E-01
     -9.127  0.1656E-01  0.6373E-01
     -9.031  0.8222E-02  0.6453E-01
     -8.934  0.1948E-01  0.6641E-01
     -8.838  0.1433E-01  0.6779E-01
     -8.741  0.2130E-02  0.6800E-01
     -8.644  0.1260E-02  0.6812E-01
     -8.548  0.1125E-01  0.6920E-01
     -8.451  0.2070E-01  0.7120E-01
     -8.355  0.7690E-02  0.7195E-01
     -8.258  0.5539E-03  0.7200E-01
     -8.162  0.7213E-05  0.7200E-01
     -8.065  0.2468E-06  0.7200E-01
     -7.968  0.5078E-04  0.7200E-01
     -7.872  0.1948E-02  0.7219E-01
     -7.775  0.1405E-01  0.7355E-01
     -7.679  0.2356E-01  0.7582E-01
     -7.582  0.2353E-01  0.7810E-01
     -7.486  0.1870E-01  0.7990E-01
     -7.389  0.1805E-01  0.8165E-01
     -7.292  0.2976E-01  0.8452E-01
     -7.196  0.2633E-01  0.8706E-01
     -7.099  0.9200E-02  0.8795E-01
     -7.003  0.5890E-02  0.8852E-01
     -6.906  0.2711E-01  0.9114E-01
     -6.810  0.3630E-01  0.9464E-01
     -6.713  0.1293E-01  0.9589E-01
     -6.616  0.1091E-02  0.9600E-01
     -6.520  0.1849E-04  0.9600E-01
     -6.423  0.5595E-07  0.9600E-01
     -6.327  0.2837E-10  0.9600E-01
     -6.230  0.2336E-14  0.9600E-01
     -6.134  0.0000E+00  0.9600E-01
     -6.037  0.0000E+00  0.9600E-01
     -5.940  0.0000E+00  0.9600E-01
     -5.844  0.0000E+00  0.9600E-01
     -5.747  0.0000E+00  0.9600E-01
     -5.651  0.0000E+00  0.9600E-01
     -5.554  0.0000E+00  0.9600E-01
     -5.458  0.0000E+00  0.9600E-01
     -5.361  0.0000E+00  0.9600E-01
     -5.265  0.0000E+00  0.9600E-01
     -5.168  0.0000E+00  0.9600E-01
     -5.071  0.0000E+00  0.9600E-01
     -4.975  0.0000E+00  0.9600E-01
     -4.878  0.0000E+00  0.9600E-01
     -4.782  0.0000E+00  0.9600E-01
     -4.685  0.0000E+00  0.9600E-01
     -4.589  0.0000E+00  0.9600E-01
     -4.492  0.0000E+00  0.9600E-01
     -4.395  0.0000E+00  0.9600E-01
     -4.299  0.0000E+00  0.9600E-01
     -4.202  0.0000E+00  0.9600E-01
     -4.106  0.0000E+00  0.9600E-01
     -4.009  0.0000E+00  0.9600E-01
     -3.913  0.0000E+00  0.9600E-01
     -3.816  0.0000E+00  0.9600E-01
     -3.719  0.0000E+00  0.9600E-01
     -3.623  0.0000E+00  0.9600E-01
     -3.526  0.0000E+00  0.9600E-01
     -3.430  0.0000E+00  0.9600E-01
     -3.333  0.0000E+00  0.9600E-01
     -3.237  0.0000E+00  0.9600E-01
     -3.140  0.0000E+00  0.9600E-01
     -3.043  0.0000E+00  0.9600E-01
     -2.947  0.0000E+00  0.9600E-01
     -2.850  0.0000E+00  0.9600E-01
     -2.754  0.0000E+00  0.9600E-01
     -2.657  0.0000E+00  0.9600E-01
     -2.561  0.0000E+00  0.9600E-01
     -2.464  0.0000E+00  0.9600E-01
     -2.367  0.0000E+00  0.9600E-01
     -2.271  0.0000E+00  0.9600E-01
     -2.174  0.0000E+00  0.9600E-01
     -2.078  0.0000E+00  0.9600E-01
     -1.981  0.0000E+00  0.9600E-01
     -1.885  0.0000E+00  0.9600E-01
     -1.788  0.5059E-16  0.9600E-01
     -1.691  0.1166E-11  0.9600E-01
     -1.595  0.4413E-08  0.9600E-01
     -1.498  0.2739E-05  0.9600E-01
     -1.402  0.2881E-03  0.9603E-01
     -1.305  0.5416E-02  0.9655E-01
     -1.209  0.1950E-01  0.9843E-01
     -1.112  0.1413E-01  0.9980E-01
     -1.015  0.2033E-02  0.9999E-01
     -0.919  0.5444E-04  0.1000E+00
     -0.822  0.4994E-06  0.1000E+00
     -0.726  0.5560E-04  0.1000E+00
     -0.629  0.2321E-02  0.1002E+00
     -0.533  0.1994E-01  0.1022E+00
     -0.436  0.3949E-01  0.1060E+00
     -0.339  0.1891E-01  0.1078E+00
     -0.243  0.2437E-02  0.1080E+00
     -0.146  0.6209E-02  0.1086E+00
     -0.050  0.2253E-01  0.1108E+00
      0.047  0.2903E-01  0.1136E+00
      0.143  0.2669E-01  0.1162E+00
      0.240  0.2901E-01  0.1190E+00
      0.337  0.3853E-01  0.1227E+00
      0.433  0.6495E-01  0.1290E+00
      0.530  0.8854E-01  0.1375E+00
      0.626  0.5438E-01  0.1428E+00
      0.723  0.1193E-01  0.1439E+00
      0.819  0.6671E-03  0.1440E+00
      0.916  0.7516E-05  0.1440E+00
      1.012  0.1521E-07  0.1440E+00
      1.109  0.5217E-11  0.1440E+00
      1.206  0.2943E-15  0.1440E+00
      1.302  0.0000E+00  0.1440E+00
      1.399  0.0000E+00  0.1440E+00
      1.495  0.0000E+00  0.1440E+00
      1.592  0.0000E+00  0.1440E+00
      1.688  0.0000E+00  0.1440E+00
      1.785  0.0000E+00  0.1440E+00
      1.882  0.0000E+00  0.1440E+00
      1.88160999    -27.08915681  301     -6.32375615      1.00000000
    -27.089  0.0000E+00  0.0000E+00  0.0000E+00  0.0000E+00  0.0000E+00  0.0000E+00  0.0000E+00  0.0000E+00  0.0000E+00
    -26.993  0.0000E+00  0.0000E+00  0.0000E+00  0.0000E+00  0.0000E+00  0.0000E+00  0.0000E+00  0.0000E+00  0.0000E+00
    -26.896  0.0000E+00  0.0000E+00  0.0000E+00  0.0000E+00  0.0000E+00  0.0000E+00  0.0000E+00  0.0000E+00  0.0000E+00
    -26.799  0.0000E+00  0.0000E+00  0.0000E+00  0.0000E+00  0.0000E+00  0.0000E+00  0.0000E+00  0.0000E+00  0.0000E+00
    -26.703  0.0000E+00  0.0000E+00  0.0000E+00  0.0000E+00  0.0000E+00  0.0000E+00  0.0000E+00  0.0000E+00  0.0000E+00
    -26.606  0.0000E+00  0.0000E+00  0.0000E+00  0.0000E+00  0.0000E+00  0.0000E+00  0.0000E+00  0.0000E+00  0.0000E+00
    -26.510  0.0000E+00  0.0000E+00  0.0000E+00  0.0000E+00  0.0000E+00  0.0000E+00  0.0000E+00  0.0000E+00  0.0000E+00
    -26.413  0.0000E+00  0.0000E+00  0.0000E+00  0.0000E+00  0.0000E+00  0.0000E+00  0.0000E+00  0.0000E+00  0.0000E+00
    -26.317  0.1265E-14  0.1031E-15  0.9636E-17  0.2370E-16  0.0000E+00  0.0000E+00  0.0000E+00  0.0000E+00  0.0000E+00
    -26.220  0.2208E-10  0.1800E-11  0.1682E-12  0.4137E-12  0.0000E+00  0.0000E+00  0.0000E+00  0.0000E+00  0.0000E+00
    -26.123  0.6223E-07  0.5072E-08  0.4740E-09  0.1166E-08  0.0000E+00  0.0000E+00  0.0000E+00  0.0000E+00  0.0000E+00
    -26.027  0.2889E-04  0.2355E-05  0.2201E-06  0.5413E-06  0.0000E+00  0.0000E+00  0.0000E+00  0.0000E+00  0.0000E+00
    -25.930  0.2289E-02  0.1866E-03  0.1744E-04  0.4289E-04  0.0000E+00  0.0000E+00  0.0000E+00  0.0000E+00  0.0000E+00
    -25.834  0.3276E-01  0.2670E-02  0.2495E-03  0.6137E-03  0.0000E+00  0.0000E+00  0.0000E+00  0.0000E+00  0.0000E+00
    -25.737  0.9077E-01  0.7399E-02  0.6914E-03  0.1701E-02  0.0000E+00  0.0000E+00  0.0000E+00  0.0000E+00  0.0000E+00
    -25.641  0.5078E-01  0.4141E-02  0.3873E-03  0.9522E-03  0.0000E+00  0.0000E+00  0.0000E+00  0.0000E+00  0.0000E+00
    -25.544  0.6575E-02  0.7091E-03  0.8952E-04  0.1872E-03  0.0000E+00  0.0000E+00  0.0000E+00  0.0000E+00  0.0000E+00
    -25.447  0.1360E-01  0.3474E-02  0.6426E-03  0.1130E-02  0.0000E+00  0.0000E+00  0.0000E+00  0.0000E+00  0.0000E+00
    -25.351  0.3757E-01  0.9383E-02  0.1729E-02  0.3050E-02  0.0000E+00  0.0000E+00  0.0000E+00  0.0000E+00  0.0000E+00
    -25.254  0.5935E-01  0.9304E-02  0.1530E-02  0.2933E-02  0.0000E+00  0.0000E+00  0.0000E+00  0.0000E+00  0.0000E+00
    -25.158  0.1668E+00  0.1850E-01  0.2635E-02  0.5631E-02  0.0000E+00  0.0000E+00  0.0000E+00  0.0000E+00  0.0000E+00
    -25.061  0.1358E+00  0.1483E-01  0.2095E-02  0.4505E-02  0.0000E+00  0.0000E+00  0.0000E+00  0.0000E+00  0.0000E+00
    -24.965  0.3205E-01  0.3780E-02  0.5848E-03  0.1198E-02  0.0000E+00  0.0000E+00  0.0000E+00  0.0000E+00  0.0000E+00
    -24.868  0.1405E+00  0.1918E-01  0.3416E-02  0.6440E-02  0.0000E+00  0.0000E+00  0.0000E+00  0.0000E+00  0.0000E+00
    -24.771  0.3869E+00  0.5261E-01  0.9362E-02  0.1755E-01  0.0000E+00  0.0000E+00  0.0000E+00  0.0000E+00  0.0000E+00
    -24.675  0.2204E+00  0.2992E-01  0.5321E-02  0.9942E-02  0.0000E+00  0.0000E+00  0.0000E+00  0.0000E+00  0.0000E+00
    -24.578  0.7920E-01  0.1112E-01  0.1983E-02  0.3626E-02  0.0000E+00  0.0000E+00  0.0000E+00  0.0000E+00  0.0000E+00
    -24.482  0.1435E+00  0.2045E-01  0.3651E-02  0.6621E-02  0.0000E+00  0.0000E+00  0.0000E+00  0.0000E+00  0.0000E+00
    -24.385  0.7460E-01  0.1063E-01  0.1898E-02  0.3441E-02  0.0000E+00  0.0000E+00  0.0000E+00  0.0000E+00  0.0000E+00
    -24.289  0.7639E-02  0.1089E-02  0.1944E-03  0.3524E-03  0.0000E+00  0.0000E+00  0.0000E+00  0.0000E+00  0.0000E+00
    -24.192  0.1435E-03  0.2045E-04  0.3651E-05  0.6619E-05  0.0000E+00  0.0000E+00  0.0000E+00  0.0000E+00  0.0000E+00
    -24.096  0.4651E-06  0.6628E-07  0.1183E-07  0.2145E-07  0.0000E+00  0.0000E+00  0.0000E+00  0.0000E+00  0.0000E+00
    -23.999  0.2500E-09  0.3562E-10  0.6360E-11  0.1153E-10  0.0000E+00  0.0000E+00  0.0000E+00  0.0000E+00  0.0000E+00
    -23.902  0.2177E-13  0.3103E-14  0.5540E-15  0.1004E-14  0.0000E+00  0.0000E+00  0.0000E+00  0.0000E+00  0.0000E+00
    -23.806  0.0000E+00  0.0000E+00  0.0000E+00  0.0000E+00  0.0000E+00  0.0000E+00  0.0000E+00  0.0000E+00  0.0000E+00
    -23.709  0.0000E+00  0.0000E+00  0.0000E+00  0.0000E+00  0.0000E+00  0.0000E+00  0.0000E+00  0.0000E+00  0.0000E+00
    -23.613  0.0000E+00  0.0000E+00  0.0000E+00  0.0000E+00  0.0000E+00  0.0000E+00  0.0000E+00  0.0000E+00  0.0000E+00
    -23.516  0.0000E+00  0.0000E+00  0.0000E+00  0.0000E+00  0.0000E+00  0.0000E+00  0.0000E+00  0.0000E+00  0.0000E+00
    -23.420  0.0000E+00  0.0000E+00  0.0000E+00  0.0000E+00  0.0000E+00  0.0000E+00  0.0000E+00  0.0000E+00  0.0000E+00
    -23.323  0.0000E+00  0.0000E+00  0.0000E+00  0.0000E+00  0.0000E+00  0.0000E+00  0.0000E+00  0.0000E+00  0.0000E+00
    -23.226  0.0000E+00  0.0000E+00  0.0000E+00  0.0000E+00  0.0000E+00  0.0000E+00  0.0000E+00  0.0000E+00  0.0000E+00
    -23.130  0.0000E+00  0.0000E+00  0.0000E+00  0.0000E+00  0.0000E+00  0.0000E+00  0.0000E+00  0.0000E+00  0.0000E+00
    -23.033  0.0000E+00  0.0000E+00  0.0000E+00  0.0000E+00  0.0000E+00  0.0000E+00  0.0000E+00  0.0000E+00  0.0000E+00
    -22.937  0.0000E+00  0.0000E+00  0.0000E+00  0.0000E+00  0.0000E+00  0.0000E+00  0.0000E+00  0.0000E+00  0.0000E+00
    -22.840  0.0000E+00  0.0000E+00  0.0000E+00  0.0000E+00  0.0000E+00  0.0000E+00  0.0000E+00  0.0000E+00  0.0000E+00
    -22.744  0.0000E+00  0.0000E+00  0.0000E+00  0.0000E+00  0.0000E+00  0.0000E+00  0.0000E+00  0.0000E+00  0.0000E+00
    -22.647  0.0000E+00  0.0000E+00  0.0000E+00  0.0000E+00  0.0000E+00  0.0000E+00  0.0000E+00  0.0000E+00  0.0000E+00
    -22.550  0.0000E+00  0.0000E+00  0.0000E+00  0.0000E+00  0.0000E+00  0.0000E+00  0.0000E+00  0.0000E+00  0.0000E+00
    -22.454  0.0000E+00  0.0000E+00  0.0000E+00  0.0000E+00  0.0000E+00  0.0000E+00  0.0000E+00  0.0000E+00  0.0000E+00
    -22.357  0.0000E+00  0.0000E+00  0.0000E+00  0.0000E+00  0.0000E+00  0.0000E+00  0.0000E+00  0.0000E+00  0.0000E+00
    -22.261  0.0000E+00  0.0000E+00  0.0000E+00  0.0000E+00  0.0000E+00  0.0000E+00  0.0000E+00  0.0000E+00  0.0000E+00
    -22.164  0.0000E+00  0.0000E+00  0.0000E+00  0.0000E+00  0.0000E+00  0.0000E+00  0.0000E+00  0.0000E+00  0.0000E+00
    -22.068  0.0000E+00  0.0000E+00  0.0000E+00  0.0000E+00  0.0000E+00  0.0000E+00  0.0000E+00  0.0000E+00  0.0000E+00
    -21.971  0.0000E+00  0.0000E+00  0.0000E+00  0.0000E+00  0.0000E+00  0.0000E+00  0.0000E+00  0.0000E+00  0.0000E+00
    -21.874  0.0000E+00  0.0000E+00  0.0000E+00  0.0000E+00  0.0000E+00  0.0000E+00  0.0000E+00  0.0000E+00  0.0000E+00
    -21.778  0.0000E+00  0.0000E+00  0.0000E+00  0.0000E+00  0.0000E+00  0.0000E+00  0.0000E+00  0.0000E+00  0.0000E+00
    -21.681  0.0000E+00  0.0000E+00  0.0000E+00  0.0000E+00  0.0000E+00  0.0000E+00  0.0000E+00  0.0000E+00  0.0000E+00
    -21.585  0.0000E+00  0.0000E+00  0.0000E+00  0.0000E+00  0.0000E+00  0.0000E+00  0.0000E+00  0.0000E+00  0.0000E+00
    -21.488  0.0000E+00  0.0000E+00  0.0000E+00  0.0000E+00  0.0000E+00  0.0000E+00  0.0000E+00  0.0000E+00  0.0000E+00
    -21.392  0.0000E+00  0.0000E+00  0.0000E+00  0.0000E+00  0.0000E+00  0.0000E+00  0.0000E+00  0.0000E+00  0.0000E+00
    -21.295  0.0000E+00  0.0000E+00  0.0000E+00  0.0000E+00  0.0000E+00  0.0000E+00  0.0000E+00  0.0000E+00  0.0000E+00
    -21.198  0.0000E+00  0.0000E+00  0.0000E+00  0.0000E+00  0.0000E+00  0.0000E+00  0.0000E+00  0.0000E+00  0.0000E+00
    -21.102  0.0000E+00  0.0000E+00  0.0000E+00  0.0000E+00  0.0000E+00  0.0000E+00  0.0000E+00  0.0000E+00  0.0000E+00
    -21.005  0.0000E+00  0.0000E+00  0.0000E+00  0.0000E+00  0.0000E+00  0.0000E+00  0.0000E+00  0.0000E+00  0.0000E+00
    -20.909  0.0000E+00  0.0000E+00  0.0000E+00  0.0000E+00  0.0000E+00  0.0000E+00  0.0000E+00  0.0000E+00  0.0000E+00
    -20.812  0.0000E+00  0.0000E+00  0.0000E+00  0.0000E+00  0.0000E+00  0.0000E+00  0.0000E+00  0.0000E+00  0.0000E+00