   18   18  500    1
  0.4444444E+03  0.2000000E-08  0.2000000E-08  0.2000000E-08  0.5000000E-15
  1.000000000000000E-004
  CAR 
 VaspCalc                                
     48      1     36
 
  0.0000000E+00  0.0000000E+00  0.0000000E+00  0.1000000E+01
    1      -25.772304   1.000000
    2      -25.388693   1.000000
    3      -25.169565   1.000000
    4      -24.848829   1.000000
    5      -24.806583   1.000000
    6      -24.521125   1.000000
    7      -13.894846   1.000000
    8      -13.372311   1.000000
    9      -13.015297   1.000000
   10      -12.800836   1.000000
   11      -12.508917   1.000000
   12      -12.418022   1.000000
   13      -10.695549   1.000000
   14       -9.858743   1.000000
   15       -9.521947   1.000000
   16       -9.229727   1.000000
   17       -8.952368   1.000000
   18       -8.511011   1.000000
   19       -7.754348   1.000000
   20       -7.587577   1.000000
   21       -7.369365   1.000000
   22       -7.248821   1.000000
   23       -6.917533   1.000000
   24       -6.851801   1.000000
   25       -1.228071   0.000000
   26       -0.512188   0.000000
   27       -0.460072   0.000000
   28       -0.074722   0.000000
   29        0.058114   0.000000
   30        0.214488   0.000000
   31        0.327970   0.000000
   32        0.432516   0.000000
   33        0.452771   0.000000
   34        0.468757   0.000000
   35        0.530836   0.000000
   36        0.564757   0.000000
