PROCAR lm decomposed
# of k-points:    1         # of bands:   36         # of ions:   18

 k-point     1 :    0.00000000 0.00000000 0.00000000     weight = 1.00000000

band     1 # energy  -25.77230377 # occ.  2.00000000
 
ion      s     py     pz     px    dxy    dyz    dz2    dxz  x2-y2    tot
    1  0.009  0.001  0.000  0.000  0.000  0.000  0.000  0.000  0.000  0.010
    2  0.007  0.000  0.000  0.001  0.000  0.000  0.000  0.000  0.000  0.008
    3  0.003  0.000  0.000  0.000  0.000  0.000  0.000  0.000  0.000  0.004
    4  0.004  0.000  0.000  0.000  0.000  0.000  0.000  0.000  0.000  0.005
    5  0.000  0.000  0.000  0.000  0.000  0.000  0.000  0.000  0.000  0.000
    6  0.000  0.000  0.000  0.000  0.000  0.000  0.000  0.000  0.000  0.000
    7  0.037  0.001  0.000  0.003  0.000  0.000  0.000  0.000  0.000  0.041
    8  0.035  0.006  0.001  0.000  0.000  0.000  0.000  0.000  0.000  0.042
    9  0.024  0.000  0.003  0.002  0.000  0.000  0.000  0.000  0.000  0.028
   10  0.025  0.002  0.000  0.001  0.000  0.000  0.000  0.000  0.000  0.029
   11  0.016  0.000  0.001  0.001  0.000  0.000  0.000  0.000  0.000  0.018
   12  0.021  0.004  0.000  0.000  0.000  0.000  0.000  0.000  0.000  0.026
   13  0.058  0.001  0.001  0.000  0.000  0.000  0.000  0.000  0.000  0.060
   14  0.020  0.000  0.001  0.001  0.000  0.000  0.000  0.000  0.000  0.022
   15  0.003  0.000  0.000  0.000  0.000  0.000  0.000  0.000  0.000  0.003
   16  0.272  0.001  0.001  0.008  0.000  0.000  0.000  0.000  0.000  0.282
   17  0.199  0.003  0.004  0.000  0.000  0.000  0.000  0.000  0.000  0.205
   18  0.151  0.001  0.003  0.001  0.000  0.000  0.000  0.000  0.000  0.155
tot    0.883  0.021  0.014  0.018  0.000  0.000  0.000  0.000  0.000  0.937
 
band     2 # energy  -25.38869252 # occ.  2.00000000
 
ion      s     py     pz     px    dxy    dyz    dz2    dxz  x2-y2    tot
    1  0.003  0.001  0.000  0.000  0.000  0.000  0.000  0.000  0.000  0.005
    2  0.006  0.000  0.000  0.001  0.000  0.000  0.000  0.000  0.000  0.007
    3  0.000  0.000  0.000  0.000  0.000  0.000  0.000  0.000  0.000  0.000
    4  0.000  0.000  0.000  0.000  0.000  0.000  0.000  0.000  0.000  0.000
    5  0.000  0.000  0.000  0.000  0.000  0.000  0.000  0.000  0.000  0.000
    6  0.000  0.000  0.000  0.000  0.000  0.000  0.000  0.000  0.000  0.000
    7  0.032  0.002  0.000  0.004  0.000  0.000  0.000  0.000  0.000  0.038
    8  0.041  0.007  0.001  0.000  0.000  0.000  0.000  0.000  0.000  0.049
    9  0.000  0.000  0.000  0.000  0.000  0.000  0.000  0.000  0.000  0.000
   10  0.000  0.000  0.000  0.000  0.000  0.000  0.000  0.000  0.000  0.000
   11  0.036  0.001  0.002  0.002  0.000  0.000  0.000  0.000  0.000  0.041
   12  0.057  0.011  0.000  0.000  0.000  0.000  0.000  0.000  0.000  0.069
   13  0.052  0.000  0.001  0.000  0.000  0.000  0.000  0.000  0.000  0.053
   14  0.001  0.000  0.000  0.000  0.000  0.000  0.000  0.000  0.000  0.001
   15  0.003  0.000  0.000  0.000  0.000  0.000  0.000  0.000  0.000  0.003
   16  0.293  0.002  0.001  0.009  0.000  0.000  0.000  0.000  0.000  0.305
   17  0.002  0.000  0.000  0.000  0.000  0.000  0.000  0.000  0.000  0.002
   18  0.371  0.005  0.007  0.002  0.000  0.000  0.000  0.000  0.000  0.385
tot    0.897  0.031  0.014  0.018  0.000  0.000  0.000  0.000  0.000  0.961
 
band     3 # energy  -25.16956475 # occ.  2.00000000
 
ion      s     py     pz     px    dxy    dyz    dz2    dxz  x2-y2    tot
    1  0.018  0.002  0.000  0.001  0.000  0.000  0.000  0.000  0.000  0.020
    2  0.018  0.000  0.000  0.003  0.000  0.000  0.000  0.000  0.000  0.021
    3  0.005  0.001  0.000  0.000  0.000  0.000  0.000  0.000  0.000  0.006
    4  0.006  0.000  0.000  0.000  0.000  0.000  0.000  0.000  0.000  0.007
    5  0.004  0.000  0.000  0.000  0.000  0.000  0.000  0.000  0.000  0.005
    6  0.004  0.000  0.000  0.000  0.000  0.000  0.000  0.000  0.000  0.005
    7  0.003  0.001  0.000  0.002  0.000  0.000  0.000  0.000  0.000  0.006
    8  0.011  0.002  0.000  0.000  0.000  0.000  0.000  0.000  0.000  0.013
    9  0.057  0.000  0.007  0.005  0.000  0.000  0.000  0.000  0.000  0.068
   10  0.045  0.005  0.000  0.003  0.000  0.000  0.000  0.000  0.000  0.054
   11  0.001  0.000  0.000  0.000  0.000  0.000  0.000  0.000  0.000  0.001
   12  0.000  0.000  0.000  0.000  0.000  0.000  0.000  0.000  0.000  0.000
   13  0.141  0.002  0.003  0.001  0.000  0.000  0.000  0.000  0.000  0.147
   14  0.038  0.000  0.001  0.001  0.000  0.000  0.000  0.000  0.000  0.040
   15  0.033  0.001  0.000  0.000  0.000  0.000  0.000  0.000  0.000  0.034
   16  0.080  0.001  0.000  0.001  0.000  0.000  0.000  0.000  0.000  0.083
   17  0.430  0.007  0.010  0.000  0.000  0.000  0.000  0.000  0.000  0.447
   18  0.001  0.000  0.000  0.000  0.000  0.000  0.000  0.000  0.000  0.001
tot    0.896  0.023  0.022  0.018  0.000  0.000  0.000  0.000  0.000  0.959
 
band     4 # energy  -24.84882943 # occ.  2.00000000
 
ion      s     py     pz     px    dxy    dyz    dz2    dxz  x2-y2    tot
    1  0.000  0.000  0.000  0.000  0.000  0.000  0.000  0.000  0.000  0.000
    2  0.001  0.000  0.000  0.000  0.000  0.000  0.000  0.000  0.000  0.001
    3  0.027  0.005  0.000  0.001  0.000  0.000  0.000  0.000  0.000  0.033
    4  0.030  0.003  0.001  0.002  0.000  0.000  0.000  0.000  0.000  0.036
    5  0.037  0.001  0.002  0.003  0.000  0.000  0.000  0.000  0.000  0.043
    6  0.042  0.004  0.000  0.005  0.000  0.000  0.000  0.000  0.000  0.050
    7  0.004  0.000  0.000  0.001  0.000  0.000  0.000  0.000  0.000  0.005
    8  0.007  0.001  0.000  0.000  0.000  0.000  0.000  0.000  0.000  0.009
    9  0.008  0.000  0.001  0.001  0.000  0.000  0.000  0.000  0.000  0.009
   10  0.004  0.001  0.000  0.001  0.000  0.000  0.000  0.000  0.000  0.005
   11  0.006  0.000  0.000  0.000  0.000  0.000  0.000  0.000  0.000  0.007
   12  0.013  0.003  0.000  0.000  0.000  0.000  0.000  0.000  0.000  0.015
   13  0.002  0.000  0.000  0.000  0.000  0.000  0.000  0.000  0.000  0.002
   14  0.232  0.000  0.005  0.005  0.000  0.000  0.000  0.000  0.000  0.242
   15  0.311  0.012  0.002  0.000  0.000  0.000  0.000  0.000  0.000  0.326
   16  0.048  0.001  0.000  0.001  0.000  0.000  0.000  0.000  0.000  0.051
   17  0.054  0.001  0.001  0.000  0.000  0.000  0.000  0.000  0.000  0.056
   18  0.073  0.002  0.002  0.000  0.000  0.000  0.000  0.000  0.000  0.077
tot    0.898  0.033  0.016  0.020  0.000  0.000  0.000  0.000  0.000  0.967
 
band     5 # energy  -24.80658285 # occ.  2.00000000
 
ion      s     py     pz     px    dxy    dyz    dz2    dxz  x2-y2    tot
    1  0.037  0.005  0.001  0.002  0.000  0.000  0.000  0.000  0.000  0.045
    2  0.044  0.000  0.001  0.008  0.000  0.000  0.000  0.000  0.000  0.053
    3  0.032  0.005  0.000  0.001  0.000  0.000  0.000  0.000  0.000  0.038
    4  0.034  0.003  0.001  0.002  0.000  0.000  0.000  0.000  0.000  0.041
    5  0.001  0.000  0.000  0.000  0.000  0.000  0.000  0.000  0.000  0.002
    6  0.003  0.000  0.000  0.000  0.000  0.000  0.000  0.000  0.000  0.003
    7  0.000  0.000  0.000  0.000  0.000  0.000  0.000  0.000  0.000  0.001
    8  0.001  0.000  0.000  0.000  0.000  0.000  0.000  0.000  0.000  0.002
    9  0.004  0.000  0.001  0.000  0.000  0.000  0.000  0.000  0.000  0.005
   10  0.002  0.000  0.000  0.000  0.000  0.000  0.000  0.000  0.000  0.003
   11  0.002  0.001  0.001  0.001  0.000  0.000  0.000  0.000  0.000  0.004
   12  0.014  0.003  0.000  0.000  0.000  0.000  0.000  0.000  0.000  0.016
   13  0.345  0.005  0.006  0.003  0.000  0.000  0.000  0.000  0.000  0.359
   14  0.244  0.000  0.005  0.007  0.000  0.000  0.000  0.000  0.000  0.256
   15  0.020  0.001  0.000  0.000  0.000  0.000  0.000  0.000  0.000  0.020
   16  0.008  0.000  0.000  0.000  0.000  0.000  0.000  0.000  0.000  0.009
   17  0.032  0.000  0.001  0.000  0.000  0.000  0.000  0.000  0.000  0.033
   18  0.080  0.002  0.001  0.000  0.000  0.000  0.000  0.000  0.000  0.083
tot    0.903  0.027  0.018  0.025  0.000  0.000  0.000  0.000  0.000  0.972
 
band     6 # energy  -24.52112509 # occ.  2.00000000
 
ion      s     py     pz     px    dxy    dyz    dz2    dxz  x2-y2    tot
    1  0.014  0.002  0.000  0.001  0.000  0.000  0.000  0.000  0.000  0.017
    2  0.012  0.000  0.000  0.003  0.000  0.000  0.000  0.000  0.000  0.016
    3  0.022  0.004  0.000  0.000  0.000  0.000  0.000  0.000  0.000  0.026
    4  0.025  0.003  0.001  0.002  0.000  0.000  0.000  0.000  0.000  0.030
    5  0.031  0.001  0.003  0.004  0.000  0.000  0.000  0.000  0.000  0.039
    6  0.050  0.004  0.000  0.005  0.000  0.000  0.000  0.000  0.000  0.060
    7  0.002  0.000  0.000  0.000  0.000  0.000  0.000  0.000  0.000  0.002
    8  0.004  0.001  0.000  0.000  0.000  0.000  0.000  0.000  0.000  0.004
    9  0.001  0.000  0.000  0.000  0.000  0.000  0.000  0.000  0.000  0.002
   10  0.000  0.000  0.000  0.000  0.000  0.000  0.000  0.000  0.000  0.001
   11  0.002  0.000  0.000  0.000  0.000  0.000  0.000  0.000  0.000  0.003
   12  0.009  0.002  0.000  0.000  0.000  0.000  0.000  0.000  0.000  0.011
   13  0.126  0.002  0.002  0.001  0.000  0.000  0.000  0.000  0.000  0.131
   14  0.182  0.000  0.003  0.006  0.000  0.000  0.000  0.000  0.000  0.191
   15  0.349  0.014  0.003  0.000  0.000  0.000  0.000  0.000  0.000  0.365
   16  0.022  0.000  0.000  0.001  0.000  0.000  0.000  0.000  0.000  0.023
   17  0.009  0.000  0.000  0.000  0.000  0.000  0.000  0.000  0.000  0.009
   18  0.049  0.002  0.001  0.000  0.000  0.000  0.000  0.000  0.000  0.051
tot    0.907  0.035  0.015  0.024  0.000  0.000  0.000  0.000  0.000  0.981
 
band     7 # energy  -13.89484619 # occ.  2.00000000
 
ion      s     py     pz     px    dxy    dyz    dz2    dxz  x2-y2    tot
    1  0.013  0.001  0.000  0.000  0.000  0.000  0.000  0.000  0.000  0.014
    2  0.015  0.000  0.000  0.001  0.000  0.000  0.000  0.000  0.000  0.017
    3  0.000  0.000  0.000  0.000  0.000  0.000  0.000  0.000  0.000  0.000
    4  0.000  0.000  0.000  0.000  0.000  0.000  0.000  0.000  0.000  0.000
    5  0.000  0.000  0.000  0.000  0.000  0.000  0.000  0.000  0.000  0.000
    6  0.000  0.000  0.000  0.000  0.000  0.000  0.000  0.000  0.000  0.000
    7  0.063  0.000  0.000  0.005  0.000  0.000  0.000  0.000  0.000  0.068
    8  0.077  0.006  0.001  0.002  0.000  0.000  0.000  0.000  0.000  0.086
    9  0.068  0.000  0.005  0.002  0.000  0.000  0.000  0.000  0.000  0.076
   10  0.039  0.003  0.000  0.000  0.000  0.000  0.000  0.000  0.000  0.042
   11  0.009  0.000  0.000  0.001  0.000  0.000  0.000  0.000  0.000  0.010
   12  0.025  0.003  0.000  0.000  0.000  0.000  0.000  0.000  0.000  0.028
   13  0.001  0.005  0.001  0.035  0.000  0.000  0.000  0.000  0.000  0.042
   14  0.001  0.000  0.000  0.000  0.000  0.000  0.000  0.000  0.000  0.001
   15  0.000  0.000  0.000  0.001  0.000  0.000  0.000  0.000  0.000  0.001
   16  0.000  0.194  0.014  0.018  0.000  0.000  0.000  0.000  0.000  0.226
   17  0.000  0.007  0.050  0.126  0.000  0.000  0.000  0.000  0.000  0.183
   18  0.000  0.065  0.001  0.000  0.000  0.000  0.000  0.000  0.000  0.066
tot    0.312  0.283  0.074  0.190  0.000  0.000  0.000  0.000  0.000  0.859
 
band     8 # energy  -13.37231145 # occ.  2.00000000
 
ion      s     py     pz     px    dxy    dyz    dz2    dxz  x2-y2    tot
    1  0.017  0.000  0.000  0.000  0.000  0.000  0.000  0.000  0.000  0.017
    2  0.004  0.000  0.000  0.000  0.000  0.000  0.000  0.000  0.000  0.005
    3  0.004  0.000  0.000  0.000  0.000  0.000  0.000  0.000  0.000  0.005
    4  0.004  0.000  0.000  0.000  0.000  0.000  0.000  0.000  0.000  0.004
    5  0.000  0.000  0.000  0.000  0.000  0.000  0.000  0.000  0.000  0.000
    6  0.001  0.000  0.000  0.000  0.000  0.000  0.000  0.000  0.000  0.001
    7  0.044  0.000  0.000  0.004  0.000  0.000  0.000  0.000  0.000  0.049
    8  0.065  0.005  0.001  0.001  0.000  0.000  0.000  0.000  0.000  0.071
    9  0.026  0.001  0.002  0.001  0.000  0.000  0.000  0.000  0.000  0.029
   10  0.056  0.003  0.000  0.001  0.000  0.000  0.000  0.000  0.000  0.060
   11  0.031  0.000  0.002  0.001  0.000  0.000  0.000  0.000  0.000  0.033
   12  0.066  0.007  0.001  0.000  0.000  0.000  0.000  0.000  0.000  0.073
   13  0.000  0.025  0.000  0.008  0.000  0.000  0.000  0.000  0.000  0.033
   14  0.000  0.011  0.000  0.000  0.000  0.000  0.000  0.000  0.000  0.011
   15  0.000  0.000  0.000  0.001  0.000  0.000  0.000  0.000  0.000  0.002
   16  0.000  0.163  0.012  0.012  0.000  0.000  0.000  0.000  0.000  0.188
   17  0.000  0.060  0.018  0.049  0.000  0.000  0.000  0.000  0.000  0.127
   18  0.001  0.170  0.002  0.002  0.000  0.000  0.000  0.000  0.000  0.175
tot    0.319  0.445  0.038  0.081  0.000  0.000  0.000  0.000  0.000  0.883
 
band     9 # energy  -13.01529724 # occ.  2.00000000
 
ion      s     py     pz     px    dxy    dyz    dz2    dxz  x2-y2    tot
    1  0.024  0.002  0.000  0.000  0.000  0.000  0.000  0.000  0.000  0.026
    2  0.053  0.000  0.001  0.004  0.000  0.000  0.000  0.000  0.000  0.058
    3  0.002  0.000  0.000  0.000  0.000  0.000  0.000  0.000  0.000  0.002
    4  0.001  0.000  0.000  0.000  0.000  0.000  0.000  0.000  0.000  0.001
    5  0.000  0.000  0.000  0.000  0.000  0.000  0.000  0.000  0.000  0.001
    6  0.002  0.000  0.000  0.000  0.000  0.000  0.000  0.000  0.000  0.003
    7  0.002  0.000  0.000  0.000  0.000  0.000  0.000  0.000  0.000  0.002
    8  0.000  0.000  0.000  0.000  0.000  0.000  0.000  0.000  0.000  0.000
    9  0.056  0.000  0.004  0.001  0.000  0.000  0.000  0.000  0.000  0.061
   10  0.044  0.003  0.000  0.001  0.000  0.000  0.000  0.000  0.000  0.049
   11  0.077  0.000  0.003  0.002  0.000  0.000  0.000  0.000  0.000  0.082
   12  0.052  0.004  0.002  0.001  0.000  0.000  0.000  0.000  0.000  0.058
   13  0.000  0.006  0.002  0.133  0.000  0.000  0.000  0.000  0.000  0.141
   14  0.000  0.004  0.000  0.000  0.000  0.000  0.000  0.000  0.000  0.004
   15  0.000  0.001  0.000  0.005  0.000  0.000  0.000  0.000  0.000  0.006
   16  0.000  0.000  0.001  0.004  0.000  0.000  0.000  0.000  0.000  0.005
   17  0.001  0.026  0.046  0.101  0.000  0.000  0.000  0.000  0.000  0.173
   18  0.000  0.144  0.020  0.047  0.000  0.000  0.000  0.000  0.000  0.211
tot    0.314  0.191  0.079  0.300  0.000  0.000  0.000  0.000  0.000  0.884
 
band    10 # energy  -12.80083642 # occ.  2.00000000
 
ion      s     py     pz     px    dxy    dyz    dz2    dxz  x2-y2    tot
    1  0.072  0.005  0.002  0.000  0.000  0.000  0.000  0.000  0.000  0.080
    2  0.059  0.001  0.001  0.004  0.000  0.000  0.000  0.000  0.000  0.065
    3  0.010  0.000  0.000  0.000  0.000  0.000  0.000  0.000  0.000  0.011
    4  0.013  0.000  0.001  0.001  0.000  0.000  0.000  0.000  0.000  0.015
    5  0.016  0.001  0.001  0.000  0.000  0.000  0.000  0.000  0.000  0.018
    6  0.028  0.002  0.000  0.001  0.000  0.000  0.000  0.000  0.000  0.031
    7  0.042  0.001  0.000  0.002  0.000  0.000  0.000  0.000  0.000  0.045
    8  0.015  0.001  0.000  0.001  0.000  0.000  0.000  0.000  0.000  0.017
    9  0.006  0.000  0.000  0.000  0.000  0.000  0.000  0.000  0.000  0.007
   10  0.020  0.001  0.000  0.001  0.000  0.000  0.000  0.000  0.000  0.022
   11  0.017  0.000  0.001  0.000  0.000  0.000  0.000  0.000  0.000  0.018
   12  0.010  0.001  0.000  0.000  0.000  0.000  0.000  0.000  0.000  0.012
   13  0.001  0.091  0.000  0.131  0.000  0.000  0.000  0.000  0.000  0.222
   14  0.000  0.035  0.000  0.004  0.000  0.000  0.000  0.000  0.000  0.039
   15  0.000  0.008  0.004  0.066  0.000  0.000  0.000  0.000  0.000  0.078
   16  0.000  0.047  0.001  0.048  0.000  0.000  0.000  0.000  0.000  0.097
   17  0.000  0.035  0.004  0.011  0.000  0.000  0.000  0.000  0.000  0.050
   18  0.000  0.028  0.003  0.018  0.000  0.000  0.000  0.000  0.000  0.049
tot    0.310  0.256  0.018  0.291  0.000  0.000  0.000  0.000  0.000  0.875
 
band    11 # energy  -12.50891701 # occ.  2.00000000
 
ion      s     py     pz     px    dxy    dyz    dz2    dxz  x2-y2    tot
    1  0.030  0.002  0.001  0.000  0.000  0.000  0.000  0.000  0.000  0.033
    2  0.017  0.000  0.001  0.002  0.000  0.000  0.000  0.000  0.000  0.020
    3  0.069  0.003  0.001  0.003  0.000  0.000  0.000  0.000  0.000  0.077
    4  0.095  0.002  0.004  0.004  0.000  0.000  0.000  0.000  0.000  0.104
    5  0.041  0.002  0.001  0.001  0.000  0.000  0.000  0.000  0.000  0.045
    6  0.036  0.003  0.000  0.001  0.000  0.000  0.000  0.000  0.000  0.040
    7  0.001  0.000  0.000  0.000  0.000  0.000  0.000  0.000  0.000  0.001
    8  0.001  0.000  0.000  0.000  0.000  0.000  0.000  0.000  0.000  0.001
    9  0.001  0.000  0.000  0.000  0.000  0.000  0.000  0.000  0.000  0.001
   10  0.001  0.000  0.000  0.000  0.000  0.000  0.000  0.000  0.000  0.001
   11  0.014  0.000  0.000  0.000  0.000  0.000  0.000  0.000  0.000  0.015
   12  0.005  0.000  0.000  0.000  0.000  0.000  0.000  0.000  0.000  0.006
   13  0.000  0.044  0.000  0.043  0.000  0.000  0.000  0.000  0.000  0.086
   14  0.000  0.250  0.006  0.021  0.000  0.000  0.000  0.000  0.000  0.278
   15  0.000  0.006  0.030  0.092  0.000  0.000  0.000  0.000  0.000  0.129
   16  0.000  0.005  0.005  0.000  0.000  0.000  0.000  0.000  0.000  0.010
   17  0.000  0.002  0.001  0.001  0.000  0.000  0.000  0.000  0.000  0.004
   18  0.000  0.017  0.012  0.004  0.000  0.000  0.000  0.000  0.000  0.033
tot    0.312  0.336  0.062  0.174  0.000  0.000  0.000  0.000  0.000  0.884
 
band    12 # energy  -12.41802204 # occ.  2.00000000
 
ion      s     py     pz     px    dxy    dyz    dz2    dxz  x2-y2    tot
    1  0.003  0.000  0.000  0.000  0.000  0.000  0.000  0.000  0.000  0.004
    2  0.002  0.000  0.000  0.000  0.000  0.000  0.000  0.000  0.000  0.003
    3  0.070  0.004  0.002  0.001  0.000  0.000  0.000  0.000  0.000  0.077
    4  0.046  0.000  0.001  0.004  0.000  0.000  0.000  0.000  0.000  0.051
    5  0.091  0.002  0.003  0.002  0.000  0.000  0.000  0.000  0.000  0.099
    6  0.091  0.007  0.000  0.002  0.000  0.000  0.000  0.000  0.000  0.100
    7  0.005  0.000  0.000  0.000  0.000  0.000  0.000  0.000  0.000  0.005
    8  0.000  0.000  0.000  0.000  0.000  0.000  0.000  0.000  0.000  0.000
    9  0.000  0.000  0.000  0.000  0.000  0.000  0.000  0.000  0.000  0.000
   10  0.000  0.000  0.000  0.000  0.000  0.000  0.000  0.000  0.000  0.000
   11  0.002  0.000  0.000  0.000  0.000  0.000  0.000  0.000  0.000  0.002
   12  0.000  0.000  0.000  0.000  0.000  0.000  0.000  0.000  0.000  0.000
   13  0.001  0.002  0.001  0.008  0.000  0.000  0.000  0.000  0.000  0.012
   14  0.000  0.188  0.009  0.001  0.000  0.000  0.000  0.000  0.000  0.198
   15  0.000  0.016  0.053  0.237  0.000  0.000  0.000  0.000  0.000  0.306
   16  0.000  0.000  0.001  0.012  0.000  0.000  0.000  0.000  0.000  0.014
   17  0.000  0.001  0.000  0.000  0.000  0.000  0.000  0.000  0.000  0.002
   18  0.000  0.001  0.004  0.000  0.000  0.000  0.000  0.000  0.000  0.005
tot    0.312  0.223  0.076  0.268  0.000  0.000  0.000  0.000  0.000  0.879
 
band    13 # energy  -10.69554921 # occ.  2.00000000
 
ion      s     py     pz     px    dxy    dyz    dz2    dxz  x2-y2    tot
    1  0.002  0.001  0.000  0.000  0.000  0.000  0.000  0.000  0.000  0.003
    2  0.021  0.000  0.000  0.001  0.000  0.000  0.000  0.000  0.000  0.022
    3  0.004  0.000  0.000  0.000  0.000  0.000  0.000  0.000  0.000  0.004
    4  0.002  0.000  0.000  0.000  0.000  0.000  0.000  0.000  0.000  0.002
    5  0.001  0.000  0.000  0.000  0.000  0.000  0.000  0.000  0.000  0.001
    6  0.000  0.000  0.000  0.000  0.000  0.000  0.000  0.000  0.000  0.000
    7  0.010  0.000  0.000  0.001  0.000  0.000  0.000  0.000  0.000  0.011
    8  0.023  0.002  0.000  0.000  0.000  0.000  0.000  0.000  0.000  0.025
    9  0.025  0.000  0.001  0.001  0.000  0.000  0.000  0.000  0.000  0.027
   10  0.006  0.001  0.001  0.000  0.000  0.000  0.000  0.000  0.000  0.008
   11  0.017  0.001  0.000  0.000  0.000  0.000  0.000  0.000  0.000  0.018
   12  0.019  0.002  0.000  0.000  0.000  0.000  0.000  0.000  0.000  0.021
   13  0.010  0.019  0.006  0.058  0.000  0.000  0.000  0.000  0.000  0.093
   14  0.007  0.002  0.006  0.010  0.000  0.000  0.000  0.000  0.000  0.025
   15  0.000  0.001  0.005  0.000  0.000  0.000  0.000  0.000  0.000  0.007
   16  0.020  0.045  0.008  0.077  0.000  0.000  0.000  0.000  0.000  0.150
   17  0.018  0.046  0.064  0.016  0.000  0.000  0.000  0.000  0.000  0.144
   18  0.018  0.042  0.075  0.032  0.000  0.000  0.000  0.000  0.000  0.167
tot    0.202  0.162  0.168  0.198  0.000  0.000  0.000  0.000  0.000  0.730
 
band    14 # energy   -9.85874275 # occ.  2.00000000
 
ion      s     py     pz     px    dxy    dyz    dz2    dxz  x2-y2    tot
    1  0.001  0.002  0.002  0.001  0.000  0.000  0.000  0.000  0.000  0.005
    2  0.003  0.000  0.000  0.000  0.000  0.000  0.000  0.000  0.000  0.003
    3  0.000  0.000  0.000  0.001  0.000  0.000  0.000  0.000  0.000  0.001
    4  0.005  0.000  0.001  0.000  0.000  0.000  0.000  0.000  0.000  0.006
    5  0.001  0.000  0.000  0.000  0.000  0.000  0.000  0.000  0.000  0.001
    6  0.000  0.000  0.000  0.000  0.000  0.000  0.000  0.000  0.000  0.000
    7  0.022  0.002  0.001  0.000  0.000  0.000  0.000  0.000  0.000  0.024
    8  0.023  0.002  0.000  0.001  0.000  0.000  0.000  0.000  0.000  0.027
    9  0.001  0.001  0.000  0.000  0.000  0.000  0.000  0.000  0.000  0.002
   10  0.002  0.001  0.000  0.003  0.000  0.000  0.000  0.000  0.000  0.007
   11  0.024  0.002  0.000  0.000  0.000  0.000  0.000  0.000  0.000  0.026
   12  0.021  0.002  0.001  0.001  0.000  0.000  0.000  0.000  0.000  0.024
   13  0.003  0.025  0.008  0.003  0.000  0.000  0.000  0.000  0.000  0.040
   14  0.001  0.011  0.002  0.009  0.000  0.000  0.000  0.000  0.000  0.023
   15  0.000  0.000  0.003  0.001  0.000  0.000  0.000  0.000  0.000  0.004
   16  0.034  0.027  0.031  0.179  0.000  0.000  0.000  0.000  0.000  0.271
   17  0.001  0.040  0.007  0.000  0.000  0.000  0.000  0.000  0.000  0.049
   18  0.029  0.042  0.127  0.051  0.000  0.000  0.000  0.000  0.000  0.249
tot    0.172  0.157  0.183  0.249  0.000  0.000  0.000  0.000  0.000  0.761
 
band    15 # energy   -9.52194734 # occ.  2.00000000
 
ion      s     py     pz     px    dxy    dyz    dz2    dxz  x2-y2    tot
    1  0.013  0.000  0.000  0.001  0.000  0.000  0.000  0.000  0.000  0.014
    2  0.006  0.001  0.000  0.000  0.000  0.000  0.000  0.000  0.000  0.007
    3  0.009  0.001  0.000  0.000  0.000  0.000  0.000  0.000  0.000  0.010
    4  0.009  0.001  0.000  0.000  0.000  0.000  0.000  0.000  0.000  0.011
    5  0.010  0.000  0.000  0.001  0.000  0.000  0.000  0.000  0.000  0.011
    6  0.009  0.000  0.001  0.001  0.000  0.000  0.000  0.000  0.000  0.011
    7  0.004  0.002  0.000  0.003  0.000  0.000  0.000  0.000  0.000  0.010
    8  0.002  0.000  0.000  0.001  0.000  0.000  0.000  0.000  0.000  0.003
    9  0.021  0.001  0.000  0.001  0.000  0.000  0.000  0.000  0.000  0.024
   10  0.019  0.000  0.001  0.001  0.000  0.000  0.000  0.000  0.000  0.021
   11  0.000  0.000  0.001  0.000  0.000  0.000  0.000  0.000  0.000  0.001
   12  0.000  0.000  0.000  0.000  0.000  0.000  0.000  0.000  0.000  0.001
   13  0.014  0.052  0.031  0.009  0.000  0.000  0.000  0.000  0.000  0.106
   14  0.013  0.003  0.023  0.061  0.000  0.000  0.000  0.000  0.000  0.100
   15  0.011  0.048  0.037  0.003  0.000  0.000  0.000  0.000  0.000  0.099
   16  0.001  0.009  0.002  0.033  0.000  0.000  0.000  0.000  0.000  0.045
   17  0.028  0.118  0.093  0.002  0.000  0.000  0.000  0.000  0.000  0.241
   18  0.000  0.000  0.004  0.030  0.000  0.000  0.000  0.000  0.000  0.034
tot    0.171  0.235  0.193  0.147  0.000  0.000  0.000  0.000  0.000  0.747
 
band    16 # energy   -9.22972663 # occ.  2.00000000
 
ion      s     py     pz     px    dxy    dyz    dz2    dxz  x2-y2    tot
    1  0.005  0.000  0.000  0.001  0.000  0.000  0.000  0.000  0.000  0.007
    2  0.014  0.001  0.000  0.002  0.000  0.000  0.000  0.000  0.000  0.017
    3  0.013  0.002  0.000  0.000  0.000  0.000  0.000  0.000  0.000  0.015
    4  0.011  0.002  0.000  0.000  0.000  0.000  0.000  0.000  0.000  0.013
    5  0.014  0.001  0.000  0.000  0.000  0.000  0.000  0.000  0.000  0.015
    6  0.026  0.000  0.000  0.002  0.000  0.000  0.000  0.000  0.000  0.029
    7  0.001  0.000  0.000  0.001  0.000  0.000  0.000  0.000  0.000  0.002
    8  0.000  0.000  0.000  0.000  0.000  0.000  0.000  0.000  0.000  0.000
    9  0.004  0.001  0.000  0.000  0.000  0.000  0.000  0.000  0.000  0.005
   10  0.007  0.000  0.000  0.001  0.000  0.000  0.000  0.000  0.000  0.008
   11  0.000  0.000  0.001  0.000  0.000  0.000  0.000  0.000  0.000  0.002
   12  0.006  0.000  0.000  0.000  0.000  0.000  0.000  0.000  0.000  0.007
   13  0.010  0.050  0.016  0.056  0.000  0.000  0.000  0.000  0.000  0.133
   14  0.012  0.008  0.015  0.110  0.000  0.000  0.000  0.000  0.000  0.146
   15  0.035  0.159  0.019  0.002  0.000  0.000  0.000  0.000  0.000  0.215
   16  0.000  0.003  0.014  0.009  0.000  0.000  0.000  0.000  0.000  0.026
   17  0.007  0.043  0.030  0.001  0.000  0.000  0.000  0.000  0.000  0.082
   18  0.007  0.019  0.002  0.000  0.000  0.000  0.000  0.000  0.000  0.028
tot    0.174  0.291  0.099  0.187  0.000  0.000  0.000  0.000  0.000  0.750
 
band    17 # energy   -8.95236789 # occ.  2.00000000
 
ion      s     py     pz     px    dxy    dyz    dz2    dxz  x2-y2    tot
    1  0.011  0.000  0.000  0.001  0.000  0.000  0.000  0.000  0.000  0.012
    2  0.004  0.001  0.000  0.000  0.000  0.000  0.000  0.000  0.000  0.004
    3  0.021  0.001  0.000  0.000  0.000  0.000  0.000  0.000  0.000  0.023
    4  0.014  0.001  0.000  0.000  0.000  0.000  0.000  0.000  0.000  0.016
    5  0.025  0.000  0.001  0.003  0.000  0.000  0.000  0.000  0.000  0.029
    6  0.013  0.000  0.001  0.002  0.000  0.000  0.000  0.000  0.000  0.016
    7  0.003  0.001  0.000  0.000  0.000  0.000  0.000  0.000  0.000  0.004
    8  0.001  0.000  0.000  0.000  0.000  0.000  0.000  0.000  0.000  0.002
    9  0.002  0.000  0.000  0.000  0.000  0.000  0.000  0.000  0.000  0.002
   10  0.001  0.000  0.000  0.000  0.000  0.000  0.000  0.000  0.000  0.001
   11  0.001  0.000  0.000  0.001  0.000  0.000  0.000  0.000  0.000  0.002
   12  0.001  0.000  0.000  0.000  0.000  0.000  0.000  0.000  0.000  0.001
   13  0.009  0.052  0.018  0.003  0.000  0.000  0.000  0.000  0.000  0.082
   14  0.032  0.016  0.083  0.068  0.000  0.000  0.000  0.000  0.000  0.198
   15  0.022  0.136  0.094  0.000  0.000  0.000  0.000  0.000  0.000  0.252
   16  0.001  0.005  0.020  0.039  0.000  0.000  0.000  0.000  0.000  0.065
   17  0.002  0.007  0.005  0.001  0.000  0.000  0.000  0.000  0.000  0.016
   18  0.000  0.005  0.023  0.004  0.000  0.000  0.000  0.000  0.000  0.032
tot    0.163  0.225  0.247  0.122  0.000  0.000  0.000  0.000  0.000  0.757
 
band    18 # energy   -8.51101140 # occ.  2.00000000
 
ion      s     py     pz     px    dxy    dyz    dz2    dxz  x2-y2    tot
    1  0.015  0.002  0.000  0.003  0.000  0.000  0.000  0.000  0.000  0.020
    2  0.008  0.001  0.001  0.001  0.000  0.000  0.000  0.000  0.000  0.011
    3  0.004  0.001  0.000  0.000  0.000  0.000  0.000  0.000  0.000  0.005
    4  0.003  0.001  0.000  0.000  0.000  0.000  0.000  0.000  0.000  0.004
    5  0.003  0.000  0.000  0.000  0.000  0.000  0.000  0.000  0.000  0.003
    6  0.004  0.000  0.000  0.001  0.000  0.000  0.000  0.000  0.000  0.004
    7  0.006  0.001  0.001  0.001  0.000  0.000  0.000  0.000  0.000  0.009
    8  0.005  0.001  0.000  0.001  0.000  0.000  0.000  0.000  0.000  0.007
    9  0.003  0.001  0.000  0.001  0.000  0.000  0.000  0.000  0.000  0.004
   10  0.008  0.001  0.000  0.002  0.000  0.000  0.000  0.000  0.000  0.011
   11  0.007  0.001  0.001  0.000  0.000  0.000  0.000  0.000  0.000  0.009
   12  0.006  0.001  0.001  0.001  0.000  0.000  0.000  0.000  0.000  0.008
   13  0.017  0.081  0.105  0.013  0.000  0.000  0.000  0.000  0.000  0.216
   14  0.006  0.005  0.024  0.021  0.000  0.000  0.000  0.000  0.000  0.055
   15  0.006  0.049  0.000  0.003  0.000  0.000  0.000  0.000  0.000  0.059
   16  0.010  0.001  0.029  0.076  0.000  0.000  0.000  0.000  0.000  0.116
   17  0.007  0.051  0.050  0.013  0.000  0.000  0.000  0.000  0.000  0.122
   18  0.011  0.010  0.057  0.042  0.000  0.000  0.000  0.000  0.000  0.120
tot    0.130  0.208  0.268  0.177  0.000  0.000  0.000  0.000  0.000  0.784
 
band    19 # energy   -7.75434763 # occ.  2.00000000
 
ion      s     py     pz     px    dxy    dyz    dz2    dxz  x2-y2    tot
    1  0.000  0.000  0.000  0.000  0.000  0.000  0.000  0.000  0.000  0.000
    2  0.000  0.000  0.000  0.000  0.000  0.000  0.000  0.000  0.000  0.000
    3  0.001  0.000  0.000  0.001  0.000  0.000  0.000  0.000  0.000  0.002
    4  0.007  0.004  0.002  0.001  0.000  0.000  0.000  0.000  0.000  0.014
    5  0.001  0.000  0.000  0.000  0.000  0.000  0.000  0.000  0.000  0.001
    6  0.000  0.000  0.000  0.000  0.000  0.000  0.000  0.000  0.000  0.000
    7  0.001  0.003  0.005  0.000  0.000  0.000  0.000  0.000  0.000  0.009
    8  0.000  0.000  0.005  0.001  0.000  0.000  0.000  0.000  0.000  0.006
    9  0.000  0.001  0.001  0.001  0.000  0.000  0.000  0.000  0.000  0.003
   10  0.000  0.000  0.001  0.001  0.000  0.000  0.000  0.000  0.000  0.002
   11  0.000  0.000  0.000  0.000  0.000  0.000  0.000  0.000  0.000  0.000
   12  0.000  0.000  0.000  0.000  0.000  0.000  0.000  0.000  0.000  0.000
   13  0.000  0.000  0.004  0.001  0.000  0.000  0.000  0.000  0.000  0.006
   14  0.002  0.004  0.019  0.070  0.000  0.000  0.000  0.000  0.000  0.094
   15  0.000  0.005  0.002  0.002  0.000  0.000  0.000  0.000  0.000  0.010
   16  0.000  0.023  0.304  0.062  0.000  0.000  0.000  0.000  0.000  0.390
   17  0.000  0.048  0.056  0.077  0.000  0.000  0.000  0.000  0.000  0.180