<?xml version="1.0" encoding="ISO-8859-1"?>
<modeling>
 <generator>
  <i name="program" type="string">vasp </i>
  <i name="version" type="string">5.4.4.18Apr17-6-g9f103f2a35  </i>
  <i name="subversion" type="string">(build Jan 13 2019 13:55:41) complex            parallel </i>
  <i name="platform" type="string">LinuxIFC </i>
  <i name="date" type="string">2019 09 05 </i>
  <i name="time" type="string">14:57:30 </i>
 </generator>
 <incar>
  <i type="string" name="SYSTEM"> VaspCalc</i>
  <i type="int" name="ISTART">     1</i>
  <i type="string" name="PREC">med</i>
  <i type="string" name="ALGO"> Fast</i>
  <i type="int" name="ISPIN">     1</i>
  <i type="int" name="NELM">   400</i>
  <i type="int" name="NELMIN">     4</i>
  <i type="int" name="IBRION">     0</i>
  <i name="EDIFF">      0.00000100</i>
  <i name="EDIFFG">     -0.01000000</i>
  <i type="int" name="NSW">   500</i>
  <i type="int" name="ISIF">     2</i>
  <i type="int" name="ISYM">     0</i>
  <i type="int" name="NBLOCK">     1</i>
  <i name="POTIM">      0.50000000</i>
  <i name="SMASS">     -3.00000000</i>
  <i type="int" name="ISMEAR">     0</i>
  <i name="SIGMA">      0.10000000</i>
  <i type="int" name="NWRITE">     1</i>
  <i type="logical" name="LWAVE"> F  </i>
  <i type="logical" name="LCHARG"> F  </i>
  <i type="int" name="LORBIT">    11</i>
  <v type="int" name="KPOINT_BSE">    -1     0     0     0</v>
  <i type="int" name="NELM">   400</i>
 </incar>
 <structure name="primitive_cell" >
  <crystal>
   <varray name="basis" >
    <v>      20.00000000       0.00000000       0.00000000 </v>
    <v>       0.00000000      20.00000000       0.00000000 </v>
    <v>       0.00000000       0.00000000      20.00000000 </v>
   </varray>
   <i name="volume">   8000.00000000 </i>
   <varray name="rec_basis" >
    <v>       0.05000000       0.00000000       0.00000000 </v>
    <v>       0.00000000       0.05000000       0.00000000 </v>
    <v>       0.00000000       0.00000000       0.05000000 </v>
   </varray>
  </crystal>
  <varray name="positions" >
   <v>      -0.48431678       0.48423117       0.42426477 </v>
   <v>      -0.46067333      -0.47262836       0.42192884 </v>
   <v>      -0.41750950      -0.48140666       0.44536113 </v>
   <v>       0.45980651       0.41683209       0.47130327 </v>
   <v>       0.49623305      -0.43201080       0.47684356 </v>
   <v>       0.41689696       0.44174577       0.47943834 </v>
   <v>      -0.49179803       0.44216098      -0.44897481 </v>
   <v>       0.44772549       0.37259916       0.45527827 </v>
   <v>       0.46683393      -0.41658867      -0.48408861 </v>
   <v>      -0.39267114       0.48689159      -0.45716518 </v>
   <v>      -0.35862473      -0.49705106      -0.49024980 </v>
   <v>      -0.48969352      -0.48518377      -0.42344519 </v>
   <v>       0.39253709      -0.46073634      -0.49396512 </v>
   <v>      -0.46834075       0.47104088      -0.41657967 </v>
   <v>       0.35967648      -0.49747091       0.49733577 </v>
   <v>       0.46837095      -0.36804080      -0.48330597 </v>
   <v>      -0.32342223       0.46952515      -0.49156202 </v>
   <v>       0.33481007       0.49683442      -0.46128770 </v>
  </varray>
 </structure>
 <varray name="primitive_index" >
  <v type="int" >        1 </v>
  <v type="int" >       13 </v>
  <v type="int" >        2 </v>
  <v type="int" >       16 </v>
  <v type="int" >       11 </v>
  <v type="int" >        7 </v>
  <v type="int" >        4 </v>
  <v type="int" >        8 </v>
  <v type="int" >       18 </v>
  <v type="int" >        5 </v>
  <v type="int" >       15 </v>
  <v type="int" >        3 </v>
  <v type="int" >       10 </v>
  <v type="int" >       14 </v>
  <v type="int" >       17 </v>
  <v type="int" >       12 </v>
  <v type="int" >        6 </v>
  <v type="int" >        9 </v>
 </varray>
 <kpoints>
  <generation param="Gamma">
   <v type="int" name="divisions">       1        1        1 </v>
   <v name="usershift">      0.00000000       0.00000000       0.00000000 </v>
   <v name="genvec1">      1.00000000       0.00000000       0.00000000 </v>
   <v name="genvec2">      0.00000000       1.00000000       0.00000000 </v>
   <v name="genvec3">      0.00000000       0.00000000       1.00000000 </v>
   <v name="shift">      0.00000000       0.00000000       0.00000000 </v>
  </generation>
  <varray name="kpointlist" >
   <v>       0.00000000       0.00000000       0.00000000 </v>
  </varray>
  <varray name="weights" >
   <v>       1.00000000 </v>
  </varray>
 </kpoints>
 <parameters>
  <separator name="general" >
   <i type="string" name="SYSTEM">VaspCalc</i>
   <i type="logical" name="LCOMPAT"> F  </i>
  </separator>
  <separator name="electronic" >
   <i type="string" name="PREC">med</i>
   <i name="ENMAX">    400.00000000</i>
   <i name="ENAUG">    605.39200000</i>
   <i name="EDIFF">      0.00000100</i>
   <i type="int" name="IALGO">    68</i>
   <i type="int" name="IWAVPR">    12</i>
   <i type="int" name="NBANDS">    36</i>
   <i name="NELECT">     48.00000000</i>
   <i type="int" name="TURBO">     0</i>
   <i type="int" name="IRESTART">     0</i>
   <i type="int" name="NREBOOT">     0</i>
   <i type="int" name="NMIN">     0</i>
   <i name="EREF">      0.00000000</i>
   <separator name="electronic smearing" >
    <i type="int" name="ISMEAR">     0</i>
    <i name="SIGMA">      0.10000000</i>
    <i name="KSPACING">      0.50000000</i>
    <i type="logical" name="KGAMMA"> T  </i>
   </separator>
   <separator name="electronic projectors" >
    <i type="logical" name="LREAL"> F  </i>
    <v name="ROPT">      0.00000000      0.00000000</v>
    <i type="int" name="LMAXPAW">  -100</i>
    <i type="int" name="LMAXMIX">     2</i>
    <i type="logical" name="NLSPLINE"> F  </i>
   </separator>
   <separator name="electronic startup" >
    <i type="int" name="ISTART">     0</i>
    <i type="int" name="ICHARG">     2</i>
    <i type="int" name="INIWAV">     1</i>
   </separator>
   <separator name="electronic spin" >
    <i type="int" name="ISPIN">     1</i>
    <i type="logical" name="LNONCOLLINEAR"> F  </i>
    <v name="MAGMOM">      1.00000000      1.00000000      1.00000000      1.00000000      1.00000000      1.00000000      1.00000000      1.00000000      1.00000000      1.00000000      1.00000000      1.00000000      1.00000000      1.00000000      1.00000000      1.00000000      1.00000000      1.00000000</v>
    <i name="NUPDOWN">     -1.00000000</i>
    <i type="logical" name="LSORBIT"> F  </i>
    <v name="SAXIS">      0.00000000      0.00000000      1.00000000</v>
    <i type="logical" name="LSPIRAL"> F  </i>
    <v name="QSPIRAL">      0.00000000      0.00000000      0.00000000</v>
    <i type="logical" name="LZEROZ"> F  </i>
   </separator>
   <separator name="electronic exchange-correlation" >
    <i type="logical" name="LASPH"> F  </i>
    <i type="logical" name="LMETAGGA"> F  </i>
   </separator>
   <separator name="electronic convergence" >
    <i type="int" name="NELM">   400</i>
    <i type="int" name="NELMDL">     0</i>
    <i type="int" name="NELMIN">     4</i>
    <i name="ENINI">    400.00000000</i>
    <separator name="electronic convergence detail" >
     <i type="logical" name="LDIAG"> T  </i>
     <i type="logical" name="LSUBROT"> F  </i>
     <i name="WEIMIN">      0.00100000</i>
     <i name="EBREAK">      0.00000001</i>
     <i name="DEPER">      0.30000000</i>
     <i type="int" name="NRMM">     4</i>
     <i name="TIME">      0.40000000</i>
    </separator>
   </separator>
   <separator name="electronic mixer" >
    <i name="AMIX">      0.40000000</i>
    <i name="BMIX">      1.00000000</i>
    <i name="AMIN">      0.10000000</i>
    <i name="AMIX_MAG">      1.60000000</i>
    <i name="BMIX_MAG">      1.00000000</i>
    <separator name="electronic mixer details" >
     <i type="int" name="IMIX">     4</i>
     <i type="logical" name="MIXFIRST"> F  </i>
     <i type="int" name="MAXMIX">   -45</i>
     <i name="WC">    100.00000000</i>
     <i type="int" name="INIMIX">     1</i>
     <i type="int" name="MIXPRE">     1</i>
     <i type="int" name="MREMOVE">     5</i>
    </separator>
   </separator>
   <separator name="electronic dipolcorrection" >
    <i type="logical" name="LDIPOL"> F  </i>
    <i type="logical" name="LMONO"> F  </i>
    <i type="int" name="IDIPOL">     0</i>
    <i name="EPSILON">      1.00000000</i>
    <v name="DIPOL">   -100.00000000   -100.00000000   -100.00000000</v>
    <i name="EFIELD">      0.00000000</i>
   </separator>
  </separator>
  <separator name="grids" >
   <i type="int" name="NGX">    98</i>
   <i type="int" name="NGY">    98</i>
   <i type="int" name="NGZ">    98</i>
   <i type="int" name="NGXF">   160</i>
   <i type="int" name="NGYF">   160</i>
   <i type="int" name="NGZF">   160</i>
   <i type="logical" name="ADDGRID"> F  </i>
  </separator>
  <separator name="ionic" >
   <i type="int" name="NSW">   500</i>
   <i type="int" name="IBRION">     0</i>
   <i type="int" name="MDALGO">     0</i>
   <i type="int" name="ISIF">     2</i>
   <i name="PSTRESS">      0.00000000</i>
   <i name="EDIFFG">     -0.01000000</i>
   <i type="int" name="NFREE">     0</i>
   <i name="POTIM">      0.50000000</i>
   <i name="SMASS">     -3.00000000</i>
   <i name="SCALEE">      1.00000000</i>
  </separator>
  <separator name="ionic md" >
   <i name="TEBEG">      0.00010000</i>
   <i name="TEEND">      0.00010000</i>
   <i type="int" name="NBLOCK">     1</i>
   <i type="int" name="KBLOCK">   500</i>
   <i type="int" name="NPACO">   256</i>
   <i name="APACO">     16.00000000</i>
  </separator>
  <separator name="symmetry" >
   <i type="int" name="ISYM">     0</i>
   <i name="SYMPREC">      0.00001000</i>
  </separator>
  <separator name="dos" >
   <i type="int" name="LORBIT">    11</i>
   <v name="RWIGS">     -1.00000000     -1.00000000</v>
   <i type="int" name="NEDOS">   301</i>
   <i name="EMIN">     10.00000000</i>
   <i name="EMAX">    -10.00000000</i>
   <i name="EFERMI">      0.00000000</i>
  </separator>
  <separator name="writing" >
   <i type="int" name="NWRITE">     1</i>
   <i type="logical" name="LWAVE"> F  </i>
   <i type="logical" name="LDOWNSAMPLE"> F  </i>
   <i type="logical" name="LCHARG"> F  </i>
   <i type="logical" name="LPARD"> F  </i>
   <i type="logical" name="LVTOT"> F  </i>
   <i type="logical" name="LVHAR"> F  </i>
   <i type="logical" name="LELF"> F  </i>
   <i type="logical" name="LOPTICS"> F  </i>
   <v name="STM">      0.00000000      0.00000000      0.00000000      0.00000000      0.00000000      0.00000000      0.00000000</v>
  </separator>
  <separator name="performance" >
   <i type="int" name="NPAR">     4</i>
   <i type="int" name="NSIM">     4</i>
   <i type="int" name="NBLK">    -1</i>
   <i type="logical" name="LPLANE"> T  </i>
   <i type="logical" name="LSCALAPACK"> T  </i>
   <i type="logical" name="LSCAAWARE"> F  </i>
   <i type="logical" name="LSCALU"> F  </i>
   <i type="logical" name="LASYNC"> F  </i>
   <i type="logical" name="LORBITALREAL"> F  </i>
  </separator>
  <separator name="miscellaneous" >
   <i type="int" name="IDIOT">     3</i>
   <i type="int" name="ISPECIAL">     0</i>
   <i type="logical" name="LMUSIC"> F  </i>
   <v name="POMASS">      1.00000000     16.00000000</v>
   <v name="DARWINR">      0.00000000      0.00000000</v>
   <v name="DARWINV">      1.00000000      1.00000000</v>
   <i type="logical" name="LCORR"> T  </i>
  </separator>
  <i type="logical" name="GGA_COMPAT"> T  </i>
  <i type="logical" name="LBERRY"> F  </i>
  <i type="int" name="ICORELEVEL">     0</i>
  <i type="logical" name="LDAU"> F  </i>
  <i type="int" name="I_CONSTRAINED_M">     0</i>
  <separator name="electronic exchange-correlation" >
   <i type="string" name="GGA">--</i>
   <i type="int" name="VOSKOWN">     0</i>
   <i type="logical" name="LHFCALC"> F  </i>
   <i type="string" name="PRECFOCK"></i>
   <i type="logical" name="LSYMGRAD"> F  </i>
   <i type="logical" name="LHFONE"> F  </i>
   <i type="logical" name="LRHFCALC"> F  </i>
   <i type="logical" name="LTHOMAS"> F  </i>
   <i type="logical" name="LMODELHF"> F  </i>
   <i name="ENCUT4O">     -1.00000000</i>
   <i type="int" name="EXXOEP">     0</i>
   <i type="int" name="FOURORBIT">     0</i>
   <i name="AEXX">      0.00000000</i>
   <i name="HFALPHA">      0.00000000</i>
   <i name="MCALPHA">      0.00000000</i>
   <i name="ALDAX">      1.00000000</i>
   <i name="AGGAX">      1.00000000</i>
   <i name="ALDAC">      1.00000000</i>
   <i name="AGGAC">      1.00000000</i>
   <i type="int" name="NKREDX">     1</i>
   <i type="int" name="NKREDY">     1</i>
   <i type="int" name="NKREDZ">     1</i>
   <i type="logical" name="SHIFTRED"> F  </i>
   <i type="logical" name="ODDONLY"> F  </i>
   <i type="logical" name="EVENONLY"> F  </i>
   <i type="int" name="LMAXFOCK">     0</i>
   <i type="int" name="NMAXFOCKAE">     0</i>
   <i type="logical" name="LFOCKAEDFT"> F  </i>
   <i name="HFSCREEN">      0.00000000</i>
   <i name="HFSCREENC">      0.00000000</i>
   <i type="int" name="NBANDSGWLOW">     0</i>
  </separator>
  <separator name="vdW DFT" >
   <i type="logical" name="LUSE_VDW"> F  </i>
   <i name="Zab_VDW">     -0.84910000</i>
   <i name="PARAM1">      0.12340000</i>
   <i name="PARAM2">      1.00000000</i>
   <i name="PARAM3">      0.00000000</i>
  </separator>
  <separator name="model GW" >
   <i type="int" name="MODEL_GW">     0</i>
   <i name="MODEL_EPS0">    266.66666667</i>
   <i name="MODEL_ALPHA">      1.00000000</i>
  </separator>
  <separator name="linear response parameters" >
   <i type="logical" name="LEPSILON"> F  </i>
   <i type="logical" name="LRPA"> F  </i>
   <i type="logical" name="LNABLA"> F  </i>
   <i type="logical" name="LVEL"> F  </i>
   <i type="int" name="KINTER">     0</i>
   <i name="CSHIFT">      0.10000000</i>
   <i name="OMEGAMAX">     -1.00000000</i>
   <i name="DEG_THRESHOLD">      0.00200000</i>
   <i name="RTIME">     -0.10000000</i>
   <i name="WPLASMAI">      0.00000000</i>
   <v name="DFIELD">      0.00000000      0.00000000      0.00000000</v>
   <v name="WPLASMA">      0.00000000      0.00000000      0.00000000      0.00000000      0.00000000      0.00000000      0.00000000      0.00000000      0.00000000</v>
  </separator>
  <separator name="orbital magnetization" >
   <i type="logical" name="NUCIND"> F  </i>
   <v name="MAGPOS">      0.00000000      0.00000000      0.00000000</v>
   <i type="logical" name="LNICSALL"> T  </i>
   <i type="logical" name="ORBITALMAG"> F  </i>
   <i type="logical" name="LMAGBLOCH"> F  </i>
   <i type="logical" name="LCHIMAG"> F  </i>
   <i type="logical" name="LGAUGE"> T  </i>
   <i type="int" name="MAGATOM">     0</i>
   <v name="MAGDIPOL">      0.00000000      0.00000000      0.00000000</v>
   <v name="AVECCONST">      0.00000000      0.00000000      0.00000000</v>
  </separator>
  <separator name="response functions" >
   <i type="logical" name="LADDER"> F  </i>
   <i type="logical" name="LRPAFORCE"> F  </i>
   <i type="logical" name="LFXC"> F  </i>
   <i type="logical" name="LHARTREE"> T  </i>
   <i type="int" name="IBSE">     0</i>
   <v type="int" name="KPOINT">    -1     0     0     0</v>
   <i type="logical" name="LTCTE"> F  </i>
   <i type="logical" name="LTETE"> F  </i>
   <i type="logical" name="LTRIPLET"> F  </i>
   <i type="logical" name="LFXCEPS"> F  </i>
   <i type="logical" name="LFXHEG"> F  </i>
   <i type="int" name="NATURALO">     2</i>
   <i type="logical" name="L2ORDER"> F  </i>
   <i type="logical" name="LMP2LT"> F  </i>
   <i type="logical" name="LUSEW"> F  </i>
   <i name="ENCUTGW">     -2.00000000</i>
   <i name="ENCUTGWSOFT">     -2.00000000</i>
   <i name="ENCUTLF">     -1.00000000</i>
   <i type="int" name="LMAXMP2">    -1</i>
   <i name="SCISSOR">      0.00000000</i>
   <i type="int" name="NOMEGA">     0</i>
   <i type="int" name="NOMEGAR">     0</i>
   <i type="int" name="NBANDSGW">    -1</i>
   <i type="int" name="NBANDSO">    -1</i>
   <i type="int" name="NBANDSV">    -1</i>
   <i type="int" name="NELM">   400</i>
   <i type="int" name="NELMHF">     1</i>
   <i type="int" name="DIM">     3</i>
   <i type="int" name="ANTIRES">     0</i>
   <i name="OMEGAMAX">    -30.00000000</i>
   <i name="OMEGAMIN">    -30.00000000</i>
   <i name="OMEGATL">   -200.00000000</i>
   <i type="int" name="OMEGAGRID">   140</i>
   <i name="CSHIFT">     -0.10000000</i>
   <i type="logical" name="SELFENERGY"> F  </i>
   <i type="logical" name="LSPECTRAL"> F  </i>
   <i type="logical" name="LSPECTRALGW"> F  </i>
   <i type="logical" name="LSINGLES"> F  </i>
   <i type="logical" name="LFERMIGW"> F  </i>
   <i type="logical" name="ODDONLYGW"> F  </i>
   <i type="logical" name="EVENONLYGW"> F  </i>
   <i type="int" name="NKREDLFX">     1</i>
   <i type="int" name="NKREDLFY">     1</i>
   <i type="int" name="NKREDLFZ">     1</i>
   <i type="int" name="MAXMEM">  2800</i>
   <i type="int" name="TELESCOPE">     0</i>
   <i type="int" name="TAUPAR">     1</i>
   <i type="int" name="OMEGAPAR">    -1</i>
   <i name="LAMBDA">      1.00000000</i>
  </separator>
  <separator name="External order field" >
   <i name="OFIELD_KAPPA">      0.00000000</i>
   <v name="OFIELD_K">      0.00000000      0.00000000      0.00000000</v>
   <i name="OFIELD_Q6_NEAR">      0.00000000</i>
   <i name="OFIELD_Q6_FAR">      0.00000000</i>
   <i name="OFIELD_A">      0.00000000</i>
  </separator>
 </parameters>
 <atominfo>
  <atoms>      18 </atoms>
  <types>       2 </types>
  <array name="atoms" >
   <dimension dim="1">ion</dimension>
   <field type="string">element</field>
   <field type="int">atomtype</field>
   <set>
    <rc><c>H </c><c>   1</c></rc>
    <rc><c>H </c><c>   1</c></rc>
    <rc><c>H </c><c>   1</c></rc>
    <rc><c>H </c><c>   1</c></rc>
    <rc><c>H </c><c>   1</c></rc>
    <rc><c>H </c><c>   1</c></rc>
    <rc><c>H </c><c>   1</c></rc>
    <rc><c>H </c><c>   1</c></rc>
    <rc><c>H </c><c>   1</c></rc>
    <rc><c>H </c><c>   1</c></rc>
    <rc><c>H </c><c>   1</c></rc>
    <rc><c>H </c><c>   1</c></rc>
    <rc><c>O </c><c>   2</c></rc>
    <rc><c>O </c><c>   2</c></rc>
    <rc><c>O </c><c>   2</c></rc>
    <rc><c>O </c><c>   2</c></rc>
    <rc><c>O </c><c>   2</c></rc>
    <rc><c>O </c><c>   2</c></rc>
   </set>
  </array>
  <array name="atomtypes" >
   <dimension dim="1">type</dimension>
   <field type="int">atomspertype</field>
   <field type="string">element</field>
   <field>mass</field>
   <field>valence</field>
   <field type="string">pseudopotential</field>
   <set>
    <rc><c>  12</c><c>H </c><c>      1.00000000</c><c>      1.00000000</c><c>  PAW_PBE H 15Jun2001                   </c></rc>
    <rc><c>   6</c><c>O </c><c>     16.00000000</c><c>      6.00000000</c><c>  PAW_PBE O 08Apr2002                   </c></rc>
   </set>
  </array>
 </atominfo>
 <structure name="initialpos" >
  <crystal>
   <varray name="basis" >
    <v>      20.00000000       0.00000000       0.00000000 </v>
    <v>       0.00000000      20.00000000       0.00000000 </v>
    <v>       0.00000000       0.00000000      20.00000000 </v>
   </varray>
   <i name="volume">   8000.00000000 </i>
   <varray name="rec_basis" >
    <v>       0.05000000       0.00000000       0.00000000 </v>
    <v>       0.00000000       0.05000000       0.00000000 </v>
    <v>       0.00000000       0.00000000       0.05000000 </v>
   </varray>
  </crystal>
  <varray name="positions" >
   <v>       0.51568322       0.48423117       0.42426477 </v>
   <v>       0.58249050       0.51859334       0.44536113 </v>
   <v>       0.51030648       0.51481623       0.57655481 </v>
   <v>       0.50820197       0.44216098       0.55102519 </v>
   <v>       0.60732886       0.48689159       0.54283482 </v>
   <v>       0.67657777       0.46952515       0.50843798 </v>
   <v>       0.41689696       0.44174577       0.47943834 </v>
   <v>       0.44772549       0.37259916       0.45527827 </v>
   <v>       0.33481007       0.49683442       0.53871230 </v>
   <v>       0.39253709       0.53926366       0.50603488 </v>
   <v>       0.49623305       0.56798920       0.47684356 </v>
   <v>       0.46837095       0.63195920       0.51669403 </v>
   <v>       0.53932667       0.52737164       0.42192884 </v>
   <v>       0.53165925       0.47104088       0.58342033 </v>
   <v>       0.64137527       0.50294894       0.50975020 </v>
   <v>       0.45980651       0.41683209       0.47130327 </v>
   <v>       0.35967648       0.50252909       0.49733577 </v>
   <v>       0.46683393       0.58341133       0.51591139 </v>
  </varray>
  <varray name="velocities" >
   <v>      -0.00017112       0.00007337      -0.00037582 </v>
   <v>      -0.00024132       0.00014424       0.00040756 </v>
   <v>       0.00046882      -0.00028351       0.00032641 </v>
   <v>      -0.00052123      -0.00034027      -0.00016456 </v>
   <v>      -0.00017140      -0.00004595       0.00047541 </v>
   <v>       0.00032394       0.00047314      -0.00029758 </v>
   <v>       0.00077881       0.00008469       0.00026073 </v>
   <v>       0.00080805       0.00045151      -0.00034536 </v>
   <v>       0.00039014      -0.00029063       0.00042348 </v>
   <v>      -0.00032198      -0.00041628       0.00040195 </v>
   <v>       0.00052181      -0.00015703      -0.00006432 </v>
   <v>       0.00028622      -0.00073270       0.00034726 </v>
   <v>      -0.00004621      -0.00013084      -0.00002515 </v>
   <v>       0.00000283       0.00011339      -0.00012243 </v>
   <v>      -0.00000330       0.00000954       0.00004723 </v>
   <v>       0.00005365      -0.00000011       0.00009831 </v>
   <v>      -0.00015520       0.00008510      -0.00003023 </v>
   <v>       0.00001381      -0.00001212      -0.00005493 </v>
  </varray>
 </structure>
 <calculation>
  <scstep>
   <time name="dav">    0.57    0.57</time>
   <time name="total">    0.68    0.68</time>
   <energy>
    <i name="alphaZ">      1.00913080 </i>
    <i name="ewald">   3140.28845924 </i>
    <i name="hartreedc">  -5297.28479706 </i>
    <i name="XCdc">    195.19423209 </i>
    <i name="pawpsdc">   2104.90519057 </i>
    <i name="pawaedc">  -2115.80374798 </i>
    <i name="eentropy">     -0.11751243 </i>
    <i name="bandstr">   -252.49065629 </i>
    <i name="atom">   2743.32276819 </i>
    <i name="e_fr_energy">    519.02306714 </i>
    <i name="e_wo_entrp">    519.14057957 </i>
    <i name="e_0_energy">    519.08182335 </i>
   </energy>
  </scstep>
  <scstep>
   <time name="dav">    0.81    0.81</time>
   <time name="total">    0.81    0.81</time>
   <energy>
    <i name="e_fr_energy">    211.66895274 </i>
    <i name="e_wo_entrp">    211.78499825 </i>
    <i name="e_0_energy">    211.72697550 </i>
   </energy>
  </scstep>
  <scstep>
   <time name="dav">    0.67    0.67</time>
   <time name="total">    0.67    0.67</time>
   <energy>
    <i name="e_fr_energy">    -43.61758308 </i>
    <i name="e_wo_entrp">    -43.61758308 </i>
    <i name="e_0_energy">    -43.61758308 </i>
   </energy>
  </scstep>
  <scstep>
   <time name="dav">    0.48    0.48</time>
   <time name="total">    0.48    0.48</time>
   <energy>
    <i name="e_fr_energy">    -95.97137162 </i>
    <i name="e_wo_entrp">    -95.97137162 </i>
    <i name="e_0_energy">    -95.97137162 </i>
   </energy>
  </scstep>
  <scstep>
   <time name="dav">    0.60    0.60</time>
   <time name="total">    0.63    0.63</time>
   <energy>
    <i name="e_fr_energy">    -96.95867499 </i>
    <i name="e_wo_entrp">    -96.95867499 </i>
    <i name="e_0_energy">    -96.95867499 </i>
   </energy>
  </scstep>
  <scstep>
   <time name="diag">    0.09    0.09</time>
   <time name="diis">    0.43    0.43</time>
   <time name="orth">    0.02    0.02</time>
   <time name="total">    0.66    0.66</time>
   <energy>
    <i name="e_fr_energy">    -88.10757043 </i>
    <i name="e_wo_entrp">    -88.10757043 </i>
    <i name="e_0_energy">    -88.10757043 </i>
   </energy>
  </scstep>
  <scstep>
   <time name="diag">    0.10    0.10</time>
   <time name="diis">    0.44    0.44</time>
   <time name="orth">    0.02    0.02</time>
   <time name="total">    0.67    0.67</time>
   <energy>
    <i name="e_fr_energy">    -87.73492735 </i>
    <i name="e_wo_entrp">    -87.73492735 </i>
    <i name="e_0_energy">    -87.73492735 </i>
   </energy>
  </scstep>
  <scstep>
   <time name="diag">    0.09    0.09</time>
   <time name="diis">    0.43    0.43</time>
   <time name="orth">    0.02    0.02</time>
   <time name="total">    0.65    0.65</time>
   <energy>
    <i name="e_fr_energy">    -87.48984954 </i>
    <i name="e_wo_entrp">    -87.48984954 </i>
    <i name="e_0_energy">    -87.48984954 </i>
   </energy>
  </scstep>
  <scstep>
   <time name="diag">    0.09    0.09</time>
   <time name="diis">    0.43    0.43</time>
   <time name="orth">    0.02    0.02</time>
   <time name="total">    0.65    0.65</time>
   <energy>
    <i name="e_fr_energy">    -87.45929730 </i>
    <i name="e_wo_entrp">    -87.45929730 </i>
    <i name="e_0_energy">    -87.45929730 </i>
   </energy>
  </scstep>
  <scstep>
   <time name="diag">    0.09    0.09</time>
   <time name="diis">    0.44    0.44</time>
   <time name="orth">    0.02    0.02</time>
   <time name="total">    0.67    0.67</time>
   <energy>
    <i name="e_fr_energy">    -87.45768861 </i>
    <i name="e_wo_entrp">    -87.45768861 </i>
    <i name="e_0_energy">    -87.45768861 </i>
   </energy>
  </scstep>
  <scstep>
   <time name="diag">    0.09    0.09</time>
   <time name="diis">    0.43    0.43</time>
   <time name="orth">    0.02    0.02</time>
   <time name="total">    0.65    0.65</time>
   <energy>
    <i name="e_fr_energy">    -87.45880805 </i>
    <i name="e_wo_entrp">    -87.45880805 </i>
    <i name="e_0_energy">    -87.45880805 </i>
   </energy>
  </scstep>
  <scstep>
   <time name="diag">    0.09    0.09</time>
   <time name="diis">    0.44    0.44</time>
   <time name="orth">    0.02    0.02</time>
   <time name="total">    0.66    0.66</time>
   <energy>
    <i name="e_fr_energy">    -87.47375929 </i>
    <i name="e_wo_entrp">    -87.47375929 </i>
    <i name="e_0_energy">    -87.47375929 </i>
   </energy>
  </scstep>
  <scstep>
   <time name="diag">    0.09    0.09</time>
   <time name="diis">    0.45    0.45</time>
   <time name="orth">    0.02    0.02</time>
   <time name="total">    0.68    0.68</time>
   <energy>
    <i name="e_fr_energy">    -87.47941643 </i>
    <i name="e_wo_entrp">    -87.47941643 </i>
    <i name="e_0_energy">    -87.47941643 </i>
   </energy>
  </scstep>
  <scstep>
   <time name="diag">    0.09    0.09</time>
   <time name="diis">    0.43    0.43</time>
   <time name="orth">    0.02    0.02</time>
   <time name="total">    0.65    0.65</time>
   <energy>
    <i name="e_fr_energy">    -87.48660760 </i>
    <i name="e_wo_entrp">    -87.48660760 </i>
    <i name="e_0_energy">    -87.48660760 </i>
   </energy>
  </scstep>
  <scstep>
   <time name="diag">    0.09    0.09</time>
   <time name="diis">    0.45    0.45</time>
   <time name="orth">    0.02    0.02</time>
   <time name="total">    0.68    0.68</time>
   <energy>
    <i name="e_fr_energy">    -87.48772243 </i>
    <i name="e_wo_entrp">    -87.48772243 </i>
    <i name="e_0_energy">    -87.48772243 </i>
   </energy>
  </scstep>
  <scstep>
   <time name="diag">    0.09    0.09</time>
   <time name="diis">    0.43    0.43</time>
   <time name="orth">    0.02    0.02</time>
   <time name="total">    0.65    0.65</time>
   <energy>
    <i name="e_fr_energy">    -87.48967571 </i>
    <i name="e_wo_entrp">    -87.48967571 </i>
    <i name="e_0_energy">    -87.48967571 </i>
   </energy>
  </scstep>
  <scstep>
   <time name="diag">    0.09    0.09</time>
   <time name="diis">    0.43    0.43</time>
   <time name="orth">    0.02    0.02</time>
   <time name="total">    0.66    0.66</time>
   <energy>
    <i name="e_fr_energy">    -87.49043631 </i>
    <i name="e_wo_entrp">    -87.49043631 </i>
    <i name="e_0_energy">    -87.49043631 </i>
   </energy>
  </scstep>
  <scstep>
   <time name="diag">    0.09    0.09</time>
   <time name="diis">    0.43    0.43</time>
   <time name="orth">    0.02    0.02</time>
   <time name="total">    0.66    0.66</time>
   <energy>
    <i name="e_fr_energy">    -87.49078032 </i>
    <i name="e_wo_entrp">    -87.49078032 </i>
    <i name="e_0_energy">    -87.49078032 </i>
   </energy>
  </scstep>
  <scstep>
   <time name="diag">    0.09    0.09</time>
   <time name="diis">    0.39    0.39</time>
   <time name="orth">    0.02    0.02</time>
   <time name="total">    0.62    0.62</time>
   <energy>
    <i name="e_fr_energy">    -87.49098613 </i>
    <i name="e_wo_entrp">    -87.49098613 </i>
    <i name="e_0_energy">    -87.49098613 </i>
   </energy>
  </scstep>
  <scstep>
   <time name="diag">    0.09    0.09</time>
   <time name="diis">    0.40    0.40</time>
   <time name="orth">    0.02    0.02</time>
   <time name="total">    0.63    0.63</time>
   <energy>
    <i name="e_fr_energy">    -87.49105999 </i>
    <i name="e_wo_entrp">    -87.49105999 </i>
    <i name="e_0_energy">    -87.49105999 </i>
   </energy>
  </scstep>
  <scstep>
   <time name="diag">    0.09    0.09</time>
   <time name="diis">    0.30    0.30</time>
   <time name="orth">    0.02    0.02</time>
   <time name="total">    0.53    0.53</time>
   <energy>
    <i name="e_fr_energy">    -87.49109643 </i>
    <i name="e_wo_entrp">    -87.49109643 </i>
    <i name="e_0_energy">    -87.49109643 </i>
   </energy>
  </scstep>
  <scstep>
   <time name="diag">    0.09    0.09</time>
   <time name="diis">    0.29    0.29</time>
   <time name="orth">    0.02    0.02</time>
   <time name="total">    0.52    0.52</time>
   <energy>
    <i name="e_fr_energy">    -87.49110791 </i>
    <i name="e_wo_entrp">    -87.49110791 </i>
    <i name="e_0_energy">    -87.49110791 </i>
   </energy>
  </scstep>
  <scstep>
   <time name="diag">    0.09    0.09</time>
   <time name="diis">    0.29    0.29</time>
   <time name="orth">    0.02    0.02</time>
   <time name="total">    0.52    0.53</time>
   <energy>
    <i name="e_fr_energy">    -87.49111546 </i>
    <i name="e_wo_entrp">    -87.49111546 </i>
    <i name="e_0_energy">    -87.49111546 </i>
   </energy>
  </scstep>
  <scstep>
   <time name="diag">    0.09    0.09</time>
   <time name="diis">    0.27    0.27</time>
   <time name="orth">    0.02    0.02</time>
   <time name="total">    0.51    0.51</time>
   <energy>
    <i name="e_fr_energy">    -87.49111847 </i>
    <i name="e_wo_entrp">    -87.49111847 </i>
    <i name="e_0_energy">    -87.49111847 </i>
   </energy>
  </scstep>
  <scstep>
   <time name="diag">    0.09    0.09</time>
   <time name="diis">    0.26    0.26</time>
   <time name="orth">    0.02    0.02</time>
   <time name="total">    0.50    0.50</time>
   <energy>
    <i name="e_fr_energy">    -87.49112056 </i>
    <i name="e_wo_entrp">    -87.49112056 </i>
    <i name="e_0_energy">    -87.49112056 </i>
   </energy>
  </scstep>
  <scstep>
   <time name="diag">    0.09    0.09</time>
   <time name="diis">    0.26    0.26</time>
   <time name="orth">    0.02    0.02</time>
   <time name="total">    0.50    0.50</time>
   <energy>
    <i name="e_fr_energy">    -87.49112183 </i>
    <i name="e_wo_entrp">    -87.49112183 </i>
    <i name="e_0_energy">    -87.49112183 </i>
   </energy>
  </scstep>
  <scstep>
   <time name="diag">    0.09    0.09</time>
   <time name="diis">    0.25    0.25</time>
   <time name="orth">    0.02    0.02</time>
   <time name="total">    0.44    0.44</time>
   <energy>
    <i name="alphaZ">      1.00913080 </i>
    <i name="ewald">   3140.28845924 </i>
    <i name="hartreedc">  -5506.76606067 </i>
    <i name="XCdc">    205.24227041 </i>
    <i name="pawpsdc">   3363.40092941 </i>
    <i name="pawaedc">  -3375.93176314 </i>
    <i name="eentropy">     -0.00000000 </i>
    <i name="bandstr">   -658.05685650 </i>
    <i name="atom">   2743.32276819 </i>
    <i name="e_fr_energy">    -87.49112225 </i>
    <i name="e_wo_entrp">    -87.49112225 </i>
    <i name="e_0_energy">    -87.49112225 </i>
   </energy>
  </scstep>
  <structure>
   <crystal>
    <varray name="basis" >
     <v>      20.00000000       0.00000000       0.00000000 </v>
     <v>       0.00000000      20.00000000       0.00000000 </v>
     <v>       0.00000000       0.00000000      20.00000000 </v>
    </varray>
    <i name="volume">   8000.00000000 </i>
    <varray name="rec_basis" >
     <v>       0.05000000       0.00000000       0.00000000 </v>
     <v>       0.00000000       0.05000000       0.00000000 </v>
     <v>       0.00000000       0.00000000       0.05000000 </v>
    </varray>
   </crystal>
   <varray name="positions" >
    <v>       0.51568322       0.48423117       0.42426477 </v>
    <v>       0.58249050       0.51859334       0.44536113 </v>
    <v>       0.51030648       0.51481623       0.57655481 </v>
    <v>       0.50820197       0.44216098       0.55102519 </v>
    <v>       0.60732886       0.48689159       0.54283482 </v>
    <v>       0.67657777       0.46952515       0.50843798 </v>
    <v>       0.41689696       0.44174577       0.47943834 </v>
    <v>       0.44772549       0.37259916       0.45527827 </v>
    <v>       0.33481007       0.49683442       0.53871230 </v>
    <v>       0.39253709       0.53926366       0.50603488 </v>
    <v>       0.49623305       0.56798920       0.47684356 </v>
    <v>       0.46837095       0.63195920       0.51669403 </v>
    <v>       0.53932667       0.52737164       0.42192884 </v>
    <v>       0.53165925       0.47104088       0.58342033 </v>
    <v>       0.64137527       0.50294894       0.50975020 </v>
    <v>       0.45980651       0.41683209       0.47130327 </v>
    <v>       0.35967648       0.50252909       0.49733577 </v>
    <v>       0.46683393       0.58341133       0.51591139 </v>
   </varray>
  </structure>
  <varray name="forces" >
   <v>       0.00020145       0.00265212      -0.00261673 </v>
   <v>       0.00172797       0.00134280      -0.00222575 </v>
   <v>      -0.00673700       0.00463248       0.00082919 </v>
   <v>      -0.00391623      -0.00388658      -0.00437440 </v>
   <v>       0.00439327      -0.00543983      -0.00048010 </v>
   <v>      -0.00836131      -0.00506863      -0.00202877 </v>
   <v>      -0.00116450       0.00079339      -0.00582526 </v>
   <v>       0.00025499      -0.00196422      -0.00201319 </v>
   <v>       0.00112292       0.00110629      -0.00092575 </v>
   <v>      -0.00404186      -0.00039382       0.00436748 </v>
   <v>      -0.00293630       0.00189257       0.00106349 </v>
   <v>       0.00084090       0.00098503       0.00090025 </v>
   <v>       0.00184127       0.00182859       0.00006159 </v>
   <v>       0.00903544      -0.00158805       0.00409131 </v>
   <v>       0.00230782       0.00656716      -0.00573283 </v>
   <v>      -0.00196891       0.00016451      -0.00102646 </v>
   <v>       0.00265632      -0.00322786      -0.00561110 </v>
   <v>      -0.00006558       0.00031523      -0.00052962 </v>
  </varray>
  <varray name="stress" >
   <v>      -0.92366326       0.00421575      -0.00333316 </v>
   <v>       0.00421575      -0.89665732       0.01620420 </v>
   <v>      -0.00333316       0.01620420      -0.95772962 </v>
  </varray>
  <energy>
   <i name="e_fr_energy">    -87.49112225 </i>
   <i name="e_wo_entrp">    -87.49112225 </i>
   <i name="e_0_energy">     -0.00000000 </i>
   <i name="kinetic">      0.58374571 </i>
   <i name="lattice kinetic">      0.00000000 </i>
   <i name="nosepot">      0.00000000 </i>
   <i name="nosekinetic">      0.00000000 </i>
   <i name="total">    -86.90737654 </i>
  </energy>
  <time name="totalsc">   17.30   17.31</time>
 </calculation>
 <calculation>
  <scstep>
   <time name="dav">    0.52    0.52</time>
   <time name="total">    0.65    0.65</time>
   <energy>
    <i name="alphaZ">      1.00913080 </i>
    <i name="ewald">   3144.37492947 </i>
    <i name="hartreedc">  -5509.45059073 </i>
    <i name="XCdc">    205.30849894 </i>
    <i name="pawpsdc">   3363.40185740 </i>
    <i name="pawaedc">  -3375.93270439 </i>
    <i name="eentropy">     -0.00000000 </i>
    <i name="bandstr">   -659.50256516 </i>
    <i name="atom">   2743.32276819 </i>
    <i name="e_fr_energy">    -87.46867548 </i>
    <i name="e_wo_entrp">    -87.46867548 </i>
    <i name="e_0_energy">    -87.46867548 </i>
   </energy>
  </scstep>
  <scstep>
   <time name="diag">    0.09    0.09</time>
   <time name="diis">    0.42    0.42</time>
   <time name="orth">    0.02    0.02</time>
   <time name="total">    0.65    0.65</time>
   <energy>
    <i name="e_fr_energy">    -87.46983006 </i>
    <i name="e_wo_entrp">    -87.46983006 </i>
    <i name="e_0_energy">    -87.46983006 </i>
   </energy>
  </scstep>
  <scstep>
   <time name="diag">    0.09    0.09</time>
   <time name="diis">    0.43    0.43</time>
   <time name="orth">    0.02    0.02</time>
   <time name="total">    0.65    0.65</time>
   <energy>
    <i name="e_fr_energy">    -87.46954755 </i>
    <i name="e_wo_entrp">    -87.46954755 </i>
    <i name="e_0_energy">    -87.46954755 </i>
   </energy>
  </scstep>
  <scstep>
   <time name="diag">    0.09    0.09</time>
   <time name="diis">    0.43    0.43</time>
   <time name="orth">    0.02    0.02</time>
   <time name="total">    0.65    0.65</time>
   <energy>
    <i name="e_fr_energy">    -87.46955666 </i>
    <i name="e_wo_entrp">    -87.46955666 </i>
    <i name="e_0_energy">    -87.46955666 </i>
   </energy>
  </scstep>
  <scstep>
   <time name="diag">    0.09    0.09</time>
   <time name="diis">    0.43    0.43</time>
   <time name="orth">    0.02    0.02</time>
   <time name="total">    0.65    0.65</time>
   <energy>
    <i name="e_fr_energy">    -87.46956251 </i>
    <i name="e_wo_entrp">    -87.46956251 </i>
    <i name="e_0_energy">    -87.46956251 </i>
   </energy>
  </scstep>
  <scstep>
   <time name="diag">    0.09    0.09</time>
   <time name="diis">    0.44    0.44</time>
   <time name="orth">    0.02    0.02</time>
   <time name="total">    0.66    0.66</time>
   <energy>
    <i name="e_fr_energy">    -87.46960028 </i>
    <i name="e_wo_entrp">    -87.46960028 </i>
    <i name="e_0_energy">    -87.46960028 </i>
   </energy>
  </scstep>
  <scstep>
   <time name="diag">    0.09    0.09</time>
   <time name="diis">    0.40    0.40</time>
   <time name="orth">    0.02    0.02</time>
   <time name="total">    0.63    0.63</time>
   <energy>
    <i name="e_fr_energy">    -87.46966514 </i>
    <i name="e_wo_entrp">    -87.46966514 </i>
    <i name="e_0_energy">    -87.46966514 </i>
   </energy>
  </scstep>
  <scstep>
   <time name="diag">    0.09    0.09</time>
   <time name="diis">    0.32    0.32</time>
   <time name="orth">    0.02    0.02</time>
   <time name="total">    0.55    0.55</time>
   <energy>
    <i name="e_fr_energy">    -87.46969189 </i>
    <i name="e_wo_entrp">    -87.46969189 </i>
    <i name="e_0_energy">    -87.46969189 </i>
   </energy>
  </scstep>
  <scstep>
   <time name="diag">    0.09    0.09</time>
   <time name="diis">    0.38    0.38</time>
   <time name="orth">    0.02    0.02</time>
   <time name="total">    0.61    0.61</time>
   <energy>
    <i name="e_fr_energy">    -87.46975484 </i>
    <i name="e_wo_entrp">    -87.46975484 </i>
    <i name="e_0_energy">    -87.46975484 </i>
   </energy>
  </scstep>
  <scstep>
   <time name="diag">    0.09    0.09</time>
   <time name="diis">    0.31    0.31</time>
   <time name="orth">    0.02    0.02</time>
   <time name="total">    0.54    0.54</time>
   <energy>
    <i name="e_fr_energy">    -87.46976819 </i>
    <i name="e_wo_entrp">    -87.46976819 </i>
    <i name="e_0_energy">    -87.46976819 </i>
   </energy>
  </scstep>
  <scstep>
   <time name="diag">    0.09    0.09</time>
   <time name="diis">    0.32    0.32</time>
   <time name="orth">    0.02    0.02</time>
   <time name="total">    0.55    0.55</time>
   <energy>
    <i name="e_fr_energy">    -87.46978712 </i>
    <i name="e_wo_entrp">    -87.46978712 </i>
    <i name="e_0_energy">    -87.46978712 </i>
   </energy>
  </scstep>
  <scstep>
   <time name="diag">    0.09    0.09</time>
   <time name="diis">    0.28    0.28</time>
   <time name="orth">    0.02    0.02</time>
   <time name="total">    0.51    0.51</time>
   <energy>
    <i name="e_fr_energy">    -87.46979365 </i>
    <i name="e_wo_entrp">    -87.46979365 </i>
    <i name="e_0_energy">    -87.46979365 </i>
   </energy>
  </scstep>
  <scstep>
   <time name="diag">    0.09    0.09</time>
   <time name="diis">    0.29    0.29</time>
   <time name="orth">    0.02    0.02</time>
   <time name="total">    0.52    0.52</time>
   <energy>
    <i name="e_fr_energy">    -87.46980034 </i>
    <i name="e_wo_entrp">    -87.46980034 </i>
    <i name="e_0_energy">    -87.46980034 </i>
   </energy>
  </scstep>
  <scstep>
   <time name="diag">    0.09    0.09</time>
   <time name="diis">    0.27    0.27</time>
   <time name="orth">    0.02    0.02</time>
   <time name="total">    0.50    0.50</time>
   <energy>
    <i name="e_fr_energy">    -87.46980211 </i>
    <i name="e_wo_entrp">    -87.46980211 </i>
    <i name="e_0_energy">    -87.46980211 </i>
   </energy>
  </scstep>
  <scstep>
   <time name="diag">    0.09    0.09</time>
   <time name="diis">    0.27    0.27</time>
   <time name="orth">    0.02    0.02</time>
   <time name="total">    0.51    0.51</time>
   <energy>
    <i name="e_fr_energy">    -87.46980444 </i>
    <i name="e_wo_entrp">    -87.46980444 </i>
    <i name="e_0_energy">    -87.46980444 </i>
   </energy>
  </scstep>
  <scstep>
   <time name="diag">    0.09    0.09</time>
   <time name="diis">    0.26    0.26</time>
   <time name="orth">    0.02    0.02</time>
   <time name="total">    0.46    0.46</time>
   <energy>
    <i name="alphaZ">      1.00913080 </i>
    <i name="ewald">   3144.37492947 </i>
    <i name="hartreedc">  -5510.14329853 </i>
    <i name="XCdc">    205.35215930 </i>
    <i name="pawpsdc">   3373.49448199 </i>
    <i name="pawaedc">  -3386.05220197 </i>
    <i name="eentropy">     -0.00000000 </i>
    <i name="bandstr">   -658.82777436 </i>
    <i name="atom">   2743.32276819 </i>
    <i name="e_fr_energy">    -87.46980512 </i>
    <i name="e_wo_entrp">    -87.46980512 </i>
    <i name="e_0_energy">    -87.46980512 </i>
   </energy>
  </scstep>
  <structure>
   <crystal>
    <varray name="basis" >
     <v>      20.00000000       0.00000000       0.00000000 </v>
     <v>       0.00000000      20.00000000       0.00000000 </v>
     <v>       0.00000000       0.00000000      20.00000000 </v>
    </varray>
    <i name="volume">   8000.00000000 </i>
    <varray name="rec_basis" >
     <v>       0.05000000       0.00000000       0.00000000 </v>
     <v>       0.00000000       0.05000000       0.00000000 </v>
     <v>       0.00000000       0.00000000       0.05000000 </v>
    </varray>
   </crystal>
   <varray name="positions" >
    <v>       0.51551213       0.48430486       0.42388866 </v>
    <v>       0.58224939       0.51873774       0.44576845 </v>
    <v>       0.51077450       0.51453328       0.57688135 </v>
    <v>       0.50768027       0.44182024       0.55086013 </v>
    <v>       0.60715799       0.48684498       0.54331019 </v>
    <v>       0.67690071       0.46999768       0.50814018 </v>
    <v>       0.41767563       0.44183056       0.47969840 </v>
    <v>       0.44853357       0.37305044       0.45493269 </v>
    <v>       0.33520035       0.49654392       0.53913569 </v>
    <v>       0.39221463       0.53884733       0.50643738 </v>
    <v>       0.49675451       0.56783240       0.47677939 </v>
    <v>       0.46865727       0.63122662       0.51704143 </v>
    <v>       0.53928048       0.52724081       0.42190372 </v>
    <v>       0.53166215       0.47115426       0.58329795 </v>
    <v>       0.64137199       0.50295853       0.50979741 </v>
    <v>       0.45986015       0.41683198       0.47140160 </v>
    <v>       0.35952130       0.50261417       0.49730552 </v>
    <v>       0.46684775       0.58339921       0.51585648 </v>
   </varray>
  </structure>
  <varray name="forces" >
   <v>      -0.01723779      -0.09072967       0.03090181 </v>
   <v>       0.02060265      -0.05245045      -0.00971742 </v>
   <v>      -0.27594132       0.48909915      -0.09833138 </v>
   <v>       0.21756898       0.30002144       0.26621913 </v>
   <v>       0.21723038       0.03871640      -0.20187177 </v>
   <v>       0.00737208      -0.06722516       0.02719032 </v>
   <v>      -0.37331943       0.11639988       0.00897692 </v>
   <v>      -0.16538529      -0.37244098      -0.13458808 </v>
   <v>       0.03845122      -0.01127921      -0.13864698 </v>
   <v>       0.20684594       0.23840844      -0.00492130 </v>
   <v>      -0.15311456       0.05267054       0.13408338 </v>
   <v>       0.02383259       0.72651007       0.01647447 </v>
   <v>       0.03457104       0.15847864      -0.00692465 </v>
   <v>       0.07532049      -0.78816186      -0.16995446 </v>
   <v>      -0.25098404       0.02073796       0.15880074 </v>
   <v>       0.51275615       0.23772061       0.10879249 </v>
   <v>      -0.23812627      -0.22315347       0.14344902 </v>
   <v>       0.11694604      -0.77441945      -0.15237153 </v>
  </varray>
  <varray name="stress" >
   <v>      -0.87239351      -0.04073182       0.03693887 </v>
   <v>      -0.04073182      -0.57534923      -0.00370074 </v>
   <v>       0.03693887      -0.00370074      -1.05827627 </v>
  </varray>
  <energy>
   <i name="e_fr_energy">    -87.46980512 </i>
   <i name="e_wo_entrp">    -87.46980512 </i>
   <i name="e_0_energy">     -0.00000000 </i>
   <i name="kinetic">      0.56287018 </i>
   <i name="lattice kinetic">      0.00000000 </i>
   <i name="nosepot">      0.00000000 </i>
   <i name="nosekinetic">      0.00000000 </i>
   <i name="total">    -86.90693494 </i>
  </energy>
  <time name="totalsc">    9.96    9.97</time>
 </calculation>
 <calculation>
  <scstep>
   <time name="dav">    0.57    0.57</time>
   <time name="total">    0.70    0.70</time>
   <energy>
    <i name="alphaZ">      1.00913080 </i>
    <i name="ewald">   3148.05831566 </i>
    <i name="hartreedc">  -5513.21553630 </i>
    <i name="XCdc">    205.45077588 </i>
    <i name="pawpsdc">   3383.36609617 </i>
    <i name="pawaedc">  -3395.94981068 </i>
    <i name="eentropy">     -0.00000000 </i>
    <i name="bandstr">   -659.45535499 </i>
    <i name="atom">   2743.32276819 </i>
    <i name="e_fr_energy">    -87.41361528 </i>
    <i name="e_wo_entrp">    -87.41361528 </i>
    <i name="e_0_energy">    -87.41361528 </i>
   </energy>
  </scstep>
  <scstep>
   <time name="diag">    0.09    0.09</time>
   <time name="diis">    0.43    0.43</time>
   <time name="orth">    0.02    0.02</time>
   <time name="total">    0.66    0.66</time>
   <energy>
    <i name="e_fr_energy">    -87.41396196 </i>
    <i name="e_wo_entrp">    -87.41396196 </i>
    <i name="e_0_energy">    -87.41396196 </i>
   </energy>
  </scstep>
  <scstep>
   <time name="diag">    0.08    0.09</time>
   <time name="diis">    0.41    0.43</time>
   <time name="orth">    0.02    0.02</time>
   <time name="total">    0.65    0.67</time>
   <energy>
    <i name="e_fr_energy">    -87.41395556 </i>
    <i name="e_wo_entrp">    -87.41395556 </i>
    <i name="e_0_energy">    -87.41395556 </i>
   </energy>
  </scstep>
  <scstep>
   <time name="diag">    0.09    0.09</time>
   <time name="diis">    0.42    0.42</time>
   <time name="orth">    0.02    0.02</time>
   <time name="total">    0.65    0.65</time>
   <energy>
    <i name="e_fr_energy">    -87.41395603 </i>
    <i name="e_wo_entrp">    -87.41395603 </i>
    <i name="e_0_energy">    -87.41395603 </i>
   </energy>
  </scstep>
  <scstep>
   <time name="diag">    0.09    0.09</time>
   <time name="diis">    0.29    0.29</time>
   <time name="orth">    0.02    0.02</time>
   <time name="total">    0.48    0.49</time>
   <energy>
    <i name="alphaZ">      1.00913080 </i>
    <i name="ewald">   3148.05831566 </i>
    <i name="hartreedc">  -5513.17989442 </i>
    <i name="XCdc">    205.44801837 </i>
    <i name="pawpsdc">   3382.69276279 </i>
    <i name="pawaedc">  -3395.27623186 </i>
    <i name="eentropy">     -0.00000000 </i>
    <i name="bandstr">   -659.48882547 </i>
    <i name="atom">   2743.32276819 </i>
    <i name="e_fr_energy">    -87.41395594 </i>
    <i name="e_wo_entrp">    -87.41395594 </i>
    <i name="e_0_energy">    -87.41395594 </i>
   </energy>
  </scstep>
  <structure>
   <crystal>
    <varray name="basis" >
     <v>      20.00000000       0.00000000       0.00000000 </v>
     <v>       0.00000000      20.00000000       0.00000000 </v>
     <v>       0.00000000       0.00000000      20.00000000 </v>
    </varray>
    <i name="volume">   8000.00000000 </i>
    <varray name="rec_basis" >
     <v>       0.05000000       0.00000000       0.00000000 </v>
     <v>       0.00000000       0.05000000       0.00000000 </v>
     <v>       0.00000000       0.00000000       0.05000000 </v>
    </varray>
   </crystal>
   <varray name="positions" >
    <v>       0.51533897       0.48436760       0.42351630 </v>
    <v>       0.58201077       0.51887582       0.44617462 </v>
    <v>       0.51120923       0.51430933       0.57719605 </v>
    <v>       0.50718482       0.44151569       0.55072720 </v>
    <v>       0.60701333       0.48680304       0.54376125 </v>
    <v>       0.67722454       0.47046210       0.50784569 </v>
    <v>       0.41840928       0.44192939       0.47995956 </v>
    <v>       0.44932171       0.37345680       0.45457091 </v>
    <v>       0.33559526       0.49625206       0.53954238 </v>
    <v>       0.39191712       0.53845975       0.50683931 </v>
    <v>       0.49725750       0.56768196       0.47673143 </v>
    <v>       0.46894648       0.63058166       0.51739084 </v>
    <v>       0.53923455       0.52711117       0.42187857 </v>
    <v>       0.53166563       0.47126169       0.58317431 </v>
    <v>       0.64136683       0.50296828       0.50984585 </v>
    <v>       0.45991766       0.41683367       0.47150077 </v>
    <v>       0.35936433       0.50269756       0.49727638 </v>
    <v>       0.46686245       0.58338126       0.51580045 </v>
   </varray>
  </structure>
  <varray name="forces" >
   <v>      -0.03143696      -0.17476224       0.06313279 </v>
   <v>       0.03431632      -0.10518998      -0.02091742 </v>
   <v>      -0.52998881       0.95222894      -0.18660716 </v>
   <v>       0.40692085       0.55955654       0.48237800 </v>
   <v>       0.39819026       0.07120275      -0.37667031 </v>
   <v>       0.01487628      -0.11711955       0.05496709 </v>
   <v>      -0.73850481       0.23535393       0.02519525 </v>
   <v>      -0.31193359      -0.69967086      -0.26135517 </v>
   <v>       0.06564557      -0.02347188      -0.26882627 </v>
   <v>       0.40887265       0.46391002      -0.01260253 </v>
   <v>      -0.29078723       0.09772229       0.24585818 </v>
   <v>       0.05475535       1.41115637       0.04234338 </v>
   <v>       0.06964620       0.30366575      -0.00983320 </v>
   <v>       0.15902202      -1.50974771      -0.30031997 </v>
   <v>      -0.46421067       0.03457997       0.29815888 </v>
   <v>       0.99987294       0.43063186       0.21196503 </v>
   <v>      -0.45899516      -0.43100954       0.28404767 </v>
   <v>       0.21174317      -1.50438281      -0.29435653 </v>
  </varray>
  <varray name="stress" >
   <v>      -0.82494979      -0.08179571       0.07204763 </v>
   <v>      -0.08179571      -0.28124029      -0.01507501 </v>
   <v>       0.07204763      -0.01507502      -1.14726716 </v>
  </varray>
  <energy>
   <i name="e_fr_energy">    -87.41395594 </i>
   <i name="e_wo_entrp">    -87.41395594 </i>
   <i name="e_0_energy">     -0.00000000 </i>
   <i name="kinetic">      0.50841119 </i>
   <i name="lattice kinetic">      0.00000000 </i>
   <i name="nosepot">      0.00000000 </i>
   <i name="nosekinetic">      0.00000000 </i>
   <i name="total">    -86.90554474 </i>
  </energy>
  <time name="totalsc">    3.80    3.84</time>
 </calculation>
 <calculation>
  <scstep>
   <time name="dav">    0.53    0.53</time>
   <time name="total">    0.65    0.65</time>
   <energy>
    <i name="alphaZ">      1.00913080 </i>
    <i name="ewald">   3150.86506059 </i>
    <i name="hartreedc">  -5515.53410821 </i>
    <i name="XCdc">    205.51244230 </i>
    <i name="pawpsdc">   3389.62789834 </i>
    <i name="pawaedc">  -3402.23345093 </i>
    <i name="eentropy">     -0.00000000 </i>
    <i name="bandstr">   -659.91497549 </i>
    <i name="atom">   2743.32276819 </i>
    <i name="e_fr_energy">    -87.34523441 </i>
    <i name="e_wo_entrp">    -87.34523441 </i>
    <i name="e_0_energy">    -87.34523441 </i>
   </energy>
  </scstep>
  <scstep>
   <time name="diag">    0.09    0.09</time>
   <time name="diis">    0.43    0.43</time>
   <time name="orth">    0.02    0.02</time>
   <time name="total">    0.66    0.66</time>
   <energy>
    <i name="e_fr_energy">    -87.34546308 </i>
    <i name="e_wo_entrp">    -87.34546308 </i>
    <i name="e_0_energy">    -87.34546308 </i>
   </energy>
  </scstep>
  <scstep>
   <time name="diag">    0.09    0.09</time>
   <time name="diis">    0.46    0.46</time>
   <time name="orth">    0.02    0.02</time>
   <time name="total">    0.69    0.69</time>
   <energy>
    <i name="e_fr_energy">    -87.34546130 </i>
    <i name="e_wo_entrp">    -87.34546130 </i>
    <i name="e_0_energy">    -87.34546130 </i>
   </energy>
  </scstep>
  <scstep>
   <time name="diag">    0.09    0.09</time>
   <time name="diis">    0.43    0.43</time>
   <time name="orth">    0.02    0.02</time>
   <time name="total">    0.65    0.66</time>
   <energy>
    <i name="e_fr_energy">    -87.34546511 </i>
    <i name="e_wo_entrp">    -87.34546511 </i>
    <i name="e_0_energy">    -87.34546511 </i>
   </energy>
  </scstep>
  <scstep>
   <time name="diag">    0.09    0.09</time>
   <time name="diis">    0.29    0.29</time>
   <time name="orth">    0.02    0.02</time>
   <time name="total">    0.52    0.52</time>
   <energy>
    <i name="e_fr_energy">    -87.34546645 </i>
    <i name="e_wo_entrp">    -87.34546645 </i>
    <i name="e_0_energy">    -87.34546645 </i>
   </energy>
  </scstep>
  <scstep>
   <time name="diag">    0.09    0.09</time>
   <time name="diis">    0.29    0.29</time>
   <time name="orth">    0.02    0.02</time>
   <time name="total">    0.52    0.52</time>
   <energy>
    <i name="e_fr_energy">    -87.34546934 </i>
    <i name="e_wo_entrp">    -87.34546934 </i>
    <i name="e_0_energy">    -87.34546934 </i>
   </energy>
  </scstep>
  <scstep>
   <time name="diag">    0.09    0.09</time>
   <time name="diis">    0.29    0.29</time>
   <time name="orth">    0.02    0.02</time>
   <time name="total">    0.52    0.52</time>
   <energy>
    <i name="e_fr_energy">    -87.34547050 </i>
    <i name="e_wo_entrp">    -87.34547050 </i>
    <i name="e_0_energy">    -87.34547050 </i>
   </energy>
  </scstep>
  <scstep>
   <time name="diag">    0.09    0.09</time>
   <time name="diis">    0.29    0.29</time>
   <time name="orth">    0.02    0.02</time>
   <time name="total">    0.52    0.52</time>
   <energy>
    <i name="e_fr_energy">    -87.34547304 </i>
    <i name="e_wo_entrp">    -87.34547304 </i>
    <i name="e_0_energy">    -87.34547304 </i>
   </energy>
  </scstep>
  <scstep>
   <time name="diag">    0.09    0.09</time>
   <time name="diis">    0.29    0.29</time>
   <time name="orth">    0.02    0.02</time>
   <time name="total">    0.48    0.48</time>
   <energy>
    <i name="alphaZ">      1.00913080 </i>
    <i name="ewald">   3150.86506059 </i>
    <i name="hartreedc">  -5515.51558630 </i>
    <i name="XCdc">    205.51181085 </i>
    <i name="pawpsdc">   3389.15483544 </i>
    <i name="pawaedc">  -3401.75860775 </i>
    <i name="eentropy">     -0.00000000 </i>
    <i name="bandstr">   -659.93488576 </i>
    <i name="atom">   2743.32276819 </i>
    <i name="e_fr_energy">    -87.34547394 </i>
    <i name="e_wo_entrp">    -87.34547394 </i>
    <i name="e_0_energy">    -87.34547394 </i>
   </energy>
  </scstep>
  <structure>
   <crystal>
    <varray name="basis" >
     <v>      20.00000000       0.00000000       0.00000000 </v>
     <v>       0.00000000      20.00000000       0.00000000 </v>
     <v>       0.00000000       0.00000000      20.00000000 </v>
    </varray>
    <i name="volume">   8000.00000000 </i>
    <varray name="rec_basis" >
     <v>       0.05000000       0.00000000       0.00000000 </v>
     <v>       0.00000000       0.05000000       0.00000000 </v>
     <v>       0.00000000       0.00000000       0.05000000 </v>
    </varray>
   </crystal>
   <varray name="positions" >
    <v>       0.51516202       0.48440928       0.42315158 </v>
    <v>       0.58177629       0.51900121       0.44657830 </v>
    <v>       0.51158005       0.51420022       0.57748827 </v>
    <v>       0.50673844       0.44127863       0.55065247 </v>
    <v>       0.60691669       0.48676969       0.54416690 </v>
    <v>       0.67755017       0.47091239       0.50755785 </v>
    <v>       0.41905387       0.44205661       0.48022378 </v>
    <v>       0.45007223       0.37377878       0.45417763 </v>
    <v>       0.33599810       0.49595738       0.53991668 </v>
    <v>       0.39166893       0.53812813       0.50723975 </v>
    <v>       0.49772543       0.56754330       0.47671314 </v>
    <v>       0.46924229       0.63010691       0.51774538 </v>
    <v>       0.53918914       0.52698383       0.42185337 </v>
    <v>       0.53167031       0.47135776       0.58304844 </v>
    <v>       0.64135817       0.50297830       0.50989656 </v>
    <v>       0.45998271       0.41683861       0.47160157 </v>
    <v>       0.35920390       0.50277771       0.49724940 </v>
    <v>       0.46687874       0.58335197       0.51574223 </v>
   </varray>
  </structure>
  <varray name="forces" >
   <v>      -0.03841944      -0.24112629       0.09378475 </v>
   <v>       0.04125824      -0.15576712      -0.03702354 </v>
   <v>      -0.72853676       1.30934275      -0.25367036 </v>
   <v>       0.55189593       0.75973026       0.63249387 </v>
   <v>       0.53925369       0.08900352      -0.51539899 </v>
   <v>       0.00967542      -0.15070411       0.08150641 </v>
   <v>      -1.05454939       0.33324011       0.03461673 </v>
   <v>      -0.42655189      -0.92247844      -0.35599447 </v>
   <v>       0.07655608      -0.03718737      -0.37697507 </v>
   <v>       0.57639788       0.64856320      -0.02510992 </v>
   <v>      -0.40790276       0.13487061       0.32814729 </v>
   <v>       0.08711615       1.91761947       0.07089700 </v>
   <v>       0.10335828       0.42849239      -0.00746765 </v>
   <v>       0.23088853      -2.06419673      -0.38475501 </v>
   <v>      -0.62193441       0.04770027       0.40268720 </v>
   <v>       1.40460050       0.54335749       0.28935410 </v>
   <v>      -0.62682617      -0.59688128       0.40753232 </v>
   <v>       0.28235236      -2.04740352      -0.40885459 </v>
  </varray>
  <varray name="stress" >
   <v>      -0.78558413      -0.11283563       0.09868001 </v>
   <v>      -0.11283563      -0.06279455      -0.02217243 </v>
   <v>       0.09868001      -0.02217243      -1.21376667 </v>
  </varray>
  <energy>
   <i name="e_fr_energy">    -87.34547394 </i>
   <i name="e_wo_entrp">    -87.34547394 </i>
   <i name="e_0_energy">     -0.00000000 </i>
   <i name="kinetic">      0.44166076 </i>
   <i name="lattice kinetic">      0.00000000 </i>
   <i name="nosepot">      0.00000000 </i>
   <i name="nosekinetic">      0.00000000 </i>
   <i name="total">    -86.90381318 </i>
  </energy>
  <time name="totalsc">    5.87    5.87</time>
 </calculation>
 <calculation>
  <scstep>
   <time name="dav">    0.53    0.53</time>
   <time name="total">    0.65    0.65</time>
   <energy>
    <i name="alphaZ">      1.00913080 </i>
    <i name="ewald">   3152.40473178 </i>
    <i name="hartreedc">  -5516.95133941 </i>
    <i name="XCdc">    205.53369907 </i>
    <i name="pawpsdc">   3391.88014426 </i>
    <i name="pawaedc">  -3404.49742188 </i>
    <i name="eentropy">     -0.00000000 </i>
    <i name="bandstr">   -659.99275209 </i>
    <i name="atom">   2743.32276819 </i>
    <i name="e_fr_energy">    -87.29103929 </i>
    <i name="e_wo_entrp">    -87.29103929 </i>
    <i name="e_0_energy">    -87.29103929 </i>
   </energy>
  </scstep>
  <scstep>
   <time name="diag">    0.09    0.09</time>
   <time name="diis">    0.43    0.43</time>
   <time name="orth">    0.02    0.02</time>
   <time name="total">    0.65    0.65</time>
   <energy>
    <i name="e_fr_energy">    -87.29112237 </i>
    <i name="e_wo_entrp">    -87.29112237 </i>
    <i name="e_0_energy">    -87.29112237 </i>
   </energy>
  </scstep>
  <scstep>
   <time name="diag">    0.09    0.09</time>
   <time name="diis">    0.43    0.43</time>
   <time name="orth">    0.02    0.02</time>
   <time name="total">    0.66    0.66</time>
   <energy>
    <i name="e_fr_energy">    -87.29112029 </i>
    <i name="e_wo_entrp">    -87.29112029 </i>
    <i name="e_0_energy">    -87.29112029 </i>
   </energy>
  </scstep>
  <scstep>
   <time name="diag">    0.09    0.09</time>
   <time name="diis">    0.42    0.42</time>
   <time name="orth">    0.02    0.02</time>
   <time name="total">    0.65    0.65</time>
   <energy>
    <i name="e_fr_energy">    -87.29112319 </i>
    <i name="e_wo_entrp">    -87.29112319 </i>
    <i name="e_0_energy">    -87.29112319 </i>
   </energy>
  </scstep>
  <scstep>
   <time name="diag">    0.09    0.09</time>
   <time name="diis">    0.29    0.29</time>
   <time name="orth">    0.02    0.02</time>
   <time name="total">    0.49    0.49</time>
   <energy>
    <i name="alphaZ">      1.00913080 </i>
    <i name="ewald">   3152.40473178 </i>
    <i name="hartreedc">  -5516.89007375 </i>
    <i name="XCdc">    205.53031687 </i>
    <i name="pawpsdc">   3391.60977942 </i>
    <i name="pawaedc">  -3404.22533080 </i>
    <i name="eentropy">     -0.00000000 </i>
    <i name="bandstr">   -660.05244561 </i>
    <i name="atom">   2743.32276819 </i>
    <i name="e_fr_energy">    -87.29112311 </i>
    <i name="e_wo_entrp">    -87.29112311 </i>
    <i name="e_0_energy">    -87.29112311 </i>
   </energy>
  </scstep>
  <structure>
   <crystal>
    <varray name="basis" >
     <v>      20.00000000       0.00000000       0.00000000 </v>
     <v>       0.00000000      20.00000000       0.00000000 </v>
     <v>       0.00000000       0.00000000      20.00000000 </v>
    </varray>
    <i name="volume">   8000.00000000 </i>
    <varray name="rec_basis" >
     <v>       0.05000000       0.00000000       0.00000000 </v>
     <v>       0.00000000       0.05000000       0.00000000 </v>
     <v>       0.00000000       0.00000000       0.05000000 </v>
    </varray>
   </crystal>
   <varray name="positions" >
    <v>       0.51498043       0.48442188       0.42279820 </v>
    <v>       0.58154679       0.51910783       0.44697753 </v>
    <v>       0.51186301       0.51424903       0.57774992 </v>
    <v>       0.50635863       0.44113320       0.55065405 </v>
    <v>       0.60688509       0.48674709       0.54451041 </v>
    <v>       0.67787697       0.47134452       0.50727988 </v>
    <v>       0.41957127       0.44222402       0.48049221 </v>
    <v>       0.45077131       0.37398950       0.45374144 </v>
    <v>       0.33641017       0.49565821       0.54024554 </v>
    <v>       0.39149025       0.53787474       0.50763719 </v>
    <v>       0.49814416       0.56742092       0.47673445 </v>
    <v>       0.46954860       0.62986343       0.51810850 </v>
    <v>       0.53914452       0.52685972       0.42182814 </v>
    <v>       0.53167673       0.47143826       0.58291969 </v>
    <v>       0.64134482       0.50298868       0.50995033 </v>
    <v>       0.46005835       0.41684764       0.47170457 </v>
    <v>       0.35903875       0.50285337       0.49722552 </v>
    <v>       0.46689717       0.58330726       0.51568095 </v>
   </varray>
  </structure>
  <varray name="forces" >
   <v>      -0.03487855      -0.28336089       0.12319859 </v>
   <v>       0.04053051      -0.20299571      -0.05855624 </v>
   <v>      -0.83583136       1.48109288      -0.29292891 </v>
   <v>       0.64487547       0.89152561       0.71193548 </v>
   <v>       0.63614986       0.09087646      -0.61228301 </v>
   <v>      -0.01133490      -0.16591312       0.10718022 </v>
   <v>      -1.28103403       0.38450747       0.02812064 </v>
   <v>      -0.50281525      -0.99727606      -0.39632584 </v>
   <v>       0.06818649      -0.05329842      -0.45315673 </v>
   <v>       0.68509130       0.76689760      -0.05048191 </v>
   <v>      -0.49898877       0.16288464       0.37679173 </v>
   <v>       0.11112849       2.12067461       0.09041401 </v>
   <v>       0.13248807       0.52415347      -0.00058484 </v>
   <v>       0.26203743      -2.36582232      -0.42473019 </v>
   <v>      -0.71676631       0.05907892       0.46733038 </v>
   <v>       1.68180112       0.55816456       0.32693630 </v>
   <v>      -0.71489350      -0.69535033       0.51120877 </v>
   <v>       0.33408838      -2.28011569      -0.48018946 </v>
  </varray>
  <varray name="stress" >
   <v>      -0.76544262      -0.12887486       0.11494322 </v>
   <v>      -0.12887486       0.03311913      -0.03063702 </v>
   <v>       0.11494322      -0.03063702      -1.25829530 </v>
  </varray>
  <energy>
   <i name="e_fr_energy">    -87.29112311 </i>
   <i name="e_wo_entrp">    -87.29112311 </i>
   <i name="e_0_energy">     -0.00000000 </i>
   <i name="kinetic">      0.38847199 </i>
   <i name="lattice kinetic">      0.00000000 </i>
   <i name="nosepot">      0.00000000 </i>
   <i name="nosekinetic">      0.00000000 </i>
   <i name="total">    -86.90265111 </i>
  </energy>
  <time name="totalsc">    3.76    3.76</time>
 </calculation>
 <calculation>
  <scstep>
   <time name="dav">    0.62    0.62</time>
   <time name="total">    0.74    0.74</time>
   <energy>
    <i name="alphaZ">      1.00913080 </i>
    <i name="ewald">   3152.50267846 </i>
    <i name="hartreedc">  -5517.32159756 </i>
    <i name="XCdc">    205.50482501 </i>
    <i name="pawpsdc">   3389.35159299 </i>
    <i name="pawaedc">  -3401.97082129 </i>
    <i name="eentropy">     -0.00000000 </i>
    <i name="bandstr">   -659.66713107 </i>
    <i name="atom">   2743.32276819 </i>
    <i name="e_fr_energy">    -87.26855447 </i>
    <i name="e_wo_entrp">    -87.26855447 </i>
    <i name="e_0_energy">    -87.26855447 </i>
   </energy>
  </scstep>
  <scstep>
   <time name="diag">    0.09    0.09</time>
   <time name="diis">    0.43    0.43</time>
   <time name="orth">    0.02    0.02</time>
   <time name="total">    0.65    0.65</time>
   <energy>
    <i name="e_fr_energy">    -87.26860057 </i>
    <i name="e_wo_entrp">    -87.26860057 </i>
    <i name="e_0_energy">    -87.26860057 </i>
   </energy>
  </scstep>
  <scstep>
   <time name="diag">    0.09    0.09</time>
   <time name="diis">    0.39    0.39</time>
   <time name="orth">    0.02    0.02</time>
   <time name="total">    0.61    0.61</time>
   <energy>
    <i name="e_fr_energy">    -87.26859845 </i>
    <i name="e_wo_entrp">    -87.26859845 </i>
    <i name="e_0_energy">    -87.26859845 </i>
   </energy>
  </scstep>
  <scstep>
   <time name="diag">    0.09    0.09</time>
   <time name="diis">    0.42    0.42</time>
   <time name="orth">    0.02    0.02</time>
   <time name="total">    0.65    0.65</time>
   <energy>
    <i name="e_fr_energy">    -87.26860152 </i>
    <i name="e_wo_entrp">    -87.26860152 </i>
    <i name="e_0_energy">    -87.26860152 </i>
   </energy>
  </scstep>
  <scstep>
   <time name="diag">    0.09    0.09</time>
   <time name="diis">    0.29    0.29</time>
   <time name="orth">    0.02    0.02</time>
   <time name="total">    0.49    0.49</time>
   <energy>
    <i name="alphaZ">      1.00913080 </i>
    <i name="ewald">   3152.50267846 </i>
    <i name="hartreedc">  -5517.20116373 </i>
    <i name="XCdc">    205.49844518 </i>
    <i name="pawpsdc">   3389.08230035 </i>
    <i name="pawaedc">  -3401.69912101 </i>
    <i name="eentropy">     -0.00000000 </i>
    <i name="bandstr">   -659.78364031 </i>
    <i name="atom">   2743.32276819 </i>
    <i name="e_fr_energy">    -87.26860206 </i>
    <i name="e_wo_entrp">    -87.26860206 </i>
    <i name="e_0_energy">    -87.26860206 </i>
   </energy>
  </scstep>
  <structure>
   <crystal>
    <varray name="basis" >
     <v>      20.00000000       0.00000000       0.00000000 </v>
     <v>       0.00000000      20.00000000       0.00000000 </v>
     <v>       0.00000000       0.00000000      20.00000000 </v>
    </varray>
    <i name="volume">   8000.00000000 </i>
    <varray name="rec_basis" >
     <v>       0.05000000       0.00000000       0.00000000 </v>
     <v>       0.00000000       0.05000000       0.00000000 </v>
     <v>       0.00000000       0.00000000       0.05000000 </v>
    </varray>
   </crystal>
   <varray name="positions" >
    <v>       0.51479464       0.48440030       0.42245970 </v>
    <v>       0.58132217       0.51918996       0.44736974 </v>
    <v>       0.51204516       0.51447648       0.57797627 </v>
    <v>       0.50605659       0.44109530       0.55074152 </v>
    <v>       0.60693022       0.48673545       0.54478011 </v>
    <v>       0.67820239       0.47175664       0.50701485 </v>
    <v>       0.41993417       0.44243782       0.48076405 </v>
    <v>       0.45140974       0.37407996       0.45325748 </v>
    <v>       0.33683047       0.49535263       0.54051978 </v>
    <v>       0.39139421       0.53771384       0.50802857 </v>
    <v>       0.49850271       0.56731818       0.47680124 </v>
    <v>       0.46986832       0.62987573       0.51848255 </v>
    <v>       0.53910090       0.52673957       0.42180294 </v>
    <v>       0.53168513       0.47150094       0.58278778 </v>
    <v>       0.64132607       0.50299951       0.51000766 </v>
    <v>       0.46014666       0.41686089       0.47181007 </v>
    <v>       0.35886821       0.50292379       0.49720553 </v>
    <v>       0.46691812       0.58324536       0.51561608 </v>
   </varray>
  </structure>
  <varray name="forces" >
   <v>      -0.01871415      -0.29752743       0.15177224 </v>
   <v>       0.03243982      -0.24575359      -0.08525050 </v>
   <v>      -0.83362199       1.42286673      -0.30393938 </v>
   <v>       0.68195084       0.95092466       0.72092103 </v>
   <v>       0.68789698       0.07687686      -0.66477484 </v>
   <v>      -0.04791731      -0.16372930       0.13200972 </v>
   <v>      -1.38745608       0.36880875      -0.00209884 </v>
   <v>      -0.54179659      -0.90826599      -0.36915305 </v>
   <v>       0.04034801      -0.07232567      -0.49081551 </v>
   <v>       0.71803789       0.80261720      -0.09488407 </v>
   <v>      -0.56081619       0.18118302       0.39067444 </v>
   <v>       0.11729187       1.96539840       0.08882421 </v>
   <v>       0.15384975       0.58534858       0.00981262 </v>
   <v>       0.23705530      -2.36558610      -0.41953965 </v>
   <v>      -0.74654151       0.06969024       0.48942657 </v>
   <v>       1.80086080       0.47898772       0.31802060 </v>
   <v>      -0.70545877      -0.71003838       0.59410785 </v>
   <v>       0.37270274      -2.14609438      -0.49423820 </v>
  </varray>
  <varray name="stress" >
   <v>      -0.77267583      -0.12661583       0.12053760 </v>
   <v>      -0.12661583      -0.01839702      -0.04641060 </v>
   <v>       0.12053760      -0.04641060      -1.28319845 </v>
  </varray>
  <energy>
   <i name="e_fr_energy">    -87.26860206 </i>
   <i name="e_wo_entrp">    -87.26860206 </i>
   <i name="e_0_energy">     -0.00000000 </i>
   <i name="kinetic">      0.36592055 </i>
   <i name="lattice kinetic">      0.00000000 </i>
   <i name="nosepot">      0.00000000 </i>
   <i name="nosekinetic">      0.00000000 </i>
   <i name="total">    -86.90268150 </i>
  </energy>
  <time name="totalsc">    3.79    3.79</time>
 </calculation>
 <calculation>
  <scstep>
   <time name="dav">    0.55    0.55</time>
   <time name="total">    0.67    0.67</time>
   <energy>
    <i name="alphaZ">      1.00913080 </i>
    <i name="ewald">   3151.27408004 </i>
    <i name="hartreedc">  -5516.50599454 </i>
    <i name="XCdc">    205.41781766 </i>
    <i name="pawpsdc">   3381.83864794 </i>
    <i name="pawaedc">  -3394.44638636 </i>
    <i name="eentropy">     -0.00000000 </i>
    <i name="bandstr">   -659.18754116 </i>
    <i name="atom">   2743.32276819 </i>
    <i name="e_fr_energy">    -87.27747744 </i>
    <i name="e_wo_entrp">    -87.27747744 </i>
    <i name="e_0_energy">    -87.27747744 </i>
   </energy>
  </scstep>
  <scstep>
   <time name="diag">    0.09    0.09</time>
   <time name="diis">    0.43    0.43</time>
   <time name="orth">    0.02    0.02</time>
   <time name="total">    0.65    0.65</time>
   <energy>
    <i name="e_fr_energy">    -87.27751063 </i>
    <i name="e_wo_entrp">    -87.27751063 </i>
    <i name="e_0_energy">    -87.27751063 </i>
   </energy>
  </scstep>
  <scstep>
   <time name="diag">    0.09    0.09</time>
   <time name="diis">    0.39    0.39</time>
   <time name="orth">    0.02    0.02</time>
   <time name="total">    0.61    0.61</time>
   <energy>
    <i name="e_fr_energy">    -87.27751142 </i>
    <i name="e_wo_entrp">    -87.27751142 </i>
    <i name="e_0_energy">    -87.27751142 </i>
   </energy>
  </scstep>
  <scstep>
   <time name="diag">    0.09    0.09</time>
   <time name="diis">    0.37    0.37</time>
   <time name="orth">    0.02    0.02</time>
   <time name="total">    0.59    0.59</time>
   <energy>
    <i name="e_fr_energy">    -87.27751660 </i>
    <i name="e_wo_entrp">    -87.27751660 </i>
    <i name="e_0_energy">    -87.27751660 </i>
   </energy>
  </scstep>
  <scstep>
   <time name="diag">    0.09    0.09</time>
   <time name="diis">    0.30    0.30</time>
   <time name="orth">    0.02    0.02</time>
   <time name="total">    0.53    0.53</time>
   <energy>
    <i name="e_fr_energy">    -87.27751837 </i>
    <i name="e_wo_entrp">    -87.27751837 </i>
    <i name="e_0_energy">    -87.27751837 </i>
   </energy>
  </scstep>
  <scstep>
   <time name="diag">    0.09    0.09</time>
   <time name="diis">    0.29    0.29</time>
   <time name="orth">    0.02    0.02</time>
   <time name="total">    0.51    0.51</time>
   <energy>
    <i name="e_fr_energy">    -87.27752331 </i>
    <i name="e_wo_entrp">    -87.27752331 </i>
    <i name="e_0_energy">    -87.27752331 </i>
   </energy>
  </scstep>
  <scstep>
   <time name="diag">    0.09    0.09</time>
   <time name="diis">    0.29    0.29</time>
   <time name="orth">    0.02    0.02</time>
   <time name="total">    0.48    0.48</time>
   <energy>
    <i name="alphaZ">      1.00913080 </i>
    <i name="ewald">   3151.27408004 </i>
    <i name="hartreedc">  -5516.56586009 </i>
    <i name="XCdc">    205.42125570 </i>
    <i name="pawpsdc">   3382.12985349 </i>
    <i name="pawaedc">  -3394.73861398 </i>
    <i name="eentropy">     -0.00000000 </i>
    <i name="bandstr">   -659.13013831 </i>
    <i name="atom">   2743.32276819 </i>
    <i name="e_fr_energy">    -87.27752417 </i>
    <i name="e_wo_entrp">    -87.27752417 </i>
    <i name="e_0_energy">    -87.27752417 </i>
   </energy>
  </scstep>
  <structure>
   <crystal>
    <varray name="basis" >
     <v>      20.00000000       0.00000000       0.00000000 </v>
     <v>       0.00000000      20.00000000       0.00000000 </v>
     <v>       0.00000000       0.00000000      20.00000000 </v>
    </varray>
    <i name="volume">   8000.00000000 </i>
    <varray name="rec_basis" >
     <v>       0.05000000       0.00000000       0.00000000 </v>
     <v>       0.00000000       0.05000000       0.00000000 </v>
     <v>       0.00000000       0.00000000       0.05000000 </v>
    </varray>
   </crystal>
   <varray name="positions" >
    <v>       0.51460659       0.48434285       0.42213955 </v>
    <v>       0.58110147       0.51924247       0.44775169 </v>
    <v>       0.51212677       0.51487554       0.57816600 </v>
    <v>       0.50583680       0.44117209       0.55091598 </v>
    <v>       0.60705831       0.48673308       0.54496967 </v>
    <v>       0.67852204       0.47214903       0.50676578 </v>
    <v>       0.42012973       0.44269610       0.48103568 </v>
    <v>       0.45198283       0.37406087       0.45272903 </v>
    <v>       0.33725563       0.49503833       0.54073485 </v>
    <v>       0.39138476       0.53764975       0.50840854 </v>
    <v>       0.49879363       0.56723731       0.47691517 </v>
    <v>       0.47020219       0.63012508       0.51886735 </v>
    <v>       0.53905844       0.52662384       0.42177784 </v>
    <v>       0.53169531       0.47154580       0.58265273 </v>
    <v>       0.64130169       0.50301087       0.51006870 </v>
    <v>       0.46024855       0.41687776       0.47191800 </v>
    <v>       0.35869235       0.50298886       0.49719005 </v>
    <v>       0.46694187       0.58316729       0.51554752 </v>
   </varray>
  </structure>
  <varray name="forces" >
   <v>       0.01060722      -0.28214942       0.17979219 </v>
   <v>       0.01756335      -0.28298731      -0.11644218 </v>
   <v>      -0.72837233       1.14345867      -0.29282388 </v>
   <v>       0.66129159       0.93673607       0.66181044 </v>
   <v>       0.69503657       0.04737952      -0.67171320 </v>
   <v>      -0.09691831      -0.14766619       0.15548112 </v>
   <v>      -1.36273947       0.27860258      -0.05909316 </v>
   <v>      -0.55044497      -0.67485701      -0.27640822 </v>
   <v>      -0.00440371      -0.09462999      -0.48729487 </v>
   <v>       0.67123587       0.75357163      -0.16028433 </v>
   <v>      -0.59114610       0.18945017       0.37003968 </v>
   <v>       0.10173749       1.49909927       0.05995061 </v>
   <v>       0.16563914       0.60907582       0.02277126 </v>
   <v>       0.16408836      -2.07121867      -0.36479611 </v>
   <v>      -0.71384415       0.08308740       0.46797555 </v>
   <v>       1.75868886       0.33345221       0.26740000 </v>
   <v>      -0.59601978      -0.63840980       0.65626178 </v>
   <v>       0.39999876      -1.68964241      -0.44307333 </v>
  </varray>
  <varray name="stress" >
   <v>      -0.81085783      -0.10578769       0.11612243 </v>
   <v>      -0.10578769      -0.20959327      -0.07241681 </v>
   <v>       0.11612243      -0.07241681      -1.29268130 </v>
  </varray>
  <energy>
   <i name="e_fr_energy">    -87.27752417 </i>
   <i name="e_wo_entrp">    -87.27752417 </i>
   <i name="e_0_energy">     -0.00000000 </i>
   <i name="kinetic">      0.37377118 </i>
   <i name="lattice kinetic">      0.00000000 </i>
   <i name="nosepot">      0.00000000 </i>
   <i name="nosekinetic">      0.00000000 </i>
   <i name="total">    -86.90375299 </i>
  </energy>
  <time name="totalsc">    4.70    4.70</time>
 </calculation>
 <calculation>
  <scstep>
   <time name="dav">    0.70    0.70</time>
   <time name="total">    0.82    0.82</time>
   <energy>
    <i name="alphaZ">      1.00913080 </i>
    <i name="ewald">   3149.09745175 </i>
    <i name="hartreedc">  -5515.13753719 </i>
    <i name="XCdc">    205.30593676 </i>
    <i name="pawpsdc">   3371.33812597 </i>
    <i name="pawaedc">  -3383.92963428 </i>
    <i name="eentropy">     -0.00000000 </i>
    <i name="bandstr">   -658.30795355 </i>
    <i name="atom">   2743.32276819 </i>
    <i name="e_fr_energy">    -87.30171155 </i>
    <i name="e_wo_entrp">    -87.30171155 </i>
    <i name="e_0_energy">    -87.30171155 </i>
   </energy>
  </scstep>
  <scstep>
   <time name="diag">    0.09    0.09</time>
   <time name="diis">    0.43    0.43</time>
   <time name="orth">    0.02    0.02</time>
   <time name="total">    0.65    0.65</time>
   <energy>
    <i name="e_fr_energy">    -87.30176983 </i>
[...]
        <r>  0.0017  0.0000  0.0010  0.0045  0.0000  0.0000  0.0000  0.0000  0.0000 </r>
        <r>  0.0148  0.0156  0.0000  0.0045  0.0000  0.0000  0.0000  0.0000  0.0000 </r>
        <r>  0.0001  0.0002  0.0000  0.0039  0.0000  0.0000  0.0000  0.0000  0.0000 </r>
        <r>  0.0068  0.0008  0.0071  0.0054  0.0000  0.0000  0.0000  0.0000  0.0000 </r>
        <r>  0.0003  0.0000  0.0000  0.0040  0.0000  0.0000  0.0000  0.0000  0.0000 </r>
       </set>
       <set comment="band 27">
        <r>  0.0000  0.0002  0.0001  0.0002  0.0000  0.0000  0.0000  0.0000  0.0000 </r>
        <r>  0.0000  0.0000  0.0000  0.0001  0.0000  0.0000  0.0000  0.0000  0.0000 </r>
        <r>  0.0000  0.0006  0.0001  0.0002  0.0000  0.0000  0.0000  0.0000  0.0000 </r>
        <r>  0.0000  0.0001  0.0001  0.0001  0.0000  0.0000  0.0000  0.0000  0.0000 </r>
        <r>  0.0001  0.0000  0.0000  0.0000  0.0000  0.0000  0.0000  0.0000  0.0000 </r>
        <r>  0.0003  0.0001  0.0000  0.0001  0.0000  0.0000  0.0000  0.0000  0.0000 </r>
        <r>  0.0006  0.0001  0.0000  0.0000  0.0000  0.0000  0.0000  0.0000  0.0000 </r>
        <r>  0.0025  0.0071  0.0011  0.0004  0.0000  0.0000  0.0000  0.0000  0.0000 </r>
        <r>  0.0000  0.0000  0.0000  0.0000  0.0000  0.0000  0.0000  0.0000  0.0000 </r>
        <r>  0.0000  0.0003  0.0000  0.0003  0.0000  0.0000  0.0000  0.0000  0.0000 </r>
        <r>  0.0014  0.0001  0.0001  0.0000  0.0000  0.0000  0.0000  0.0000  0.0000 </r>
        <r>  0.0015  0.0082  0.0005  0.0000  0.0000  0.0000  0.0000  0.0000  0.0000 </r>
        <r>  0.0005  0.0061  0.0000  0.0000  0.0000  0.0000  0.0000  0.0000  0.0000 </r>
        <r>  0.0001  0.0051  0.0000  0.0000  0.0000  0.0000  0.0000  0.0000  0.0000 </r>
        <r>  0.0009  0.0001  0.0000  0.0001  0.0000  0.0000  0.0000  0.0000  0.0000 </r>
        <r>  0.0080  0.0173  0.0017  0.0022  0.0000  0.0000  0.0000  0.0000  0.0000 </r>
        <r>  0.0000  0.0079  0.0000  0.0000  0.0000  0.0000  0.0000  0.0000  0.0000 </r>
        <r>  0.0107  0.0147  0.0010  0.0002  0.0000  0.0000  0.0000  0.0000  0.0000 </r>
       </set>
       <set comment="band 28">
        <r>  0.0006  0.0003  0.0001  0.0000  0.0000  0.0000  0.0000  0.0000  0.0000 </r>
        <r>  0.0000  0.0000  0.0000  0.0000  0.0000  0.0000  0.0000  0.0000  0.0000 </r>
        <r>  0.0000  0.0001  0.0000  0.0000  0.0000  0.0000  0.0000  0.0000  0.0000 </r>
        <r>  0.0000  0.0001  0.0000  0.0000  0.0000  0.0000  0.0000  0.0000  0.0000 </r>
        <r>  0.0005  0.0000  0.0000  0.0001  0.0000  0.0000  0.0000  0.0000  0.0000 </r>
        <r>  0.0007  0.0014  0.0000  0.0015  0.0000  0.0000  0.0000  0.0000  0.0000 </r>
        <r>  0.0000  0.0000  0.0000  0.0000  0.0000  0.0000  0.0000  0.0000  0.0000 </r>
        <r>  0.0020  0.0029  0.0004  0.0002  0.0000  0.0000  0.0000  0.0000  0.0000 </r>
        <r>  0.0018  0.0000  0.0037  0.0021  0.0000  0.0000  0.0000  0.0000  0.0000 </r>
        <r>  0.0001  0.0000  0.0001  0.0000  0.0000  0.0000  0.0000  0.0000  0.0000 </r>
        <r>  0.0002  0.0001  0.0000  0.0000  0.0000  0.0000  0.0000  0.0000  0.0000 </r>
        <r>  0.0008  0.0039  0.0002  0.0000  0.0000  0.0000  0.0000  0.0000  0.0000 </r>
        <r>  0.0012  0.0000  0.0001  0.0014  0.0000  0.0000  0.0000  0.0000  0.0000 </r>
        <r>  0.0000  0.0000  0.0004  0.0007  0.0000  0.0000  0.0000  0.0000  0.0000 </r>
        <r>  0.0023  0.0047  0.0005  0.0037  0.0000  0.0000  0.0000  0.0000  0.0000 </r>
        <r>  0.0036  0.0086  0.0001  0.0000  0.0000  0.0000  0.0000  0.0000  0.0000 </r>
        <r>  0.0025  0.0004  0.0092  0.0098  0.0000  0.0000  0.0000  0.0000  0.0000 </r>
        <r>  0.0025  0.0082  0.0018  0.0012  0.0000  0.0000  0.0000  0.0000  0.0000 </r>
       </set>
       <set comment="band 29">
        <r>  0.0001  0.0000  0.0000  0.0000  0.0000  0.0000  0.0000  0.0000  0.0000 </r>
        <r>  0.0000  0.0000  0.0000  0.0001  0.0000  0.0000  0.0000  0.0000  0.0000 </r>
        <r>  0.0001  0.0001  0.0000  0.0000  0.0000  0.0000  0.0000  0.0000  0.0000 </r>
        <r>  0.0000  0.0001  0.0000  0.0000  0.0000  0.0000  0.0000  0.0000  0.0000 </r>
        <r>  0.0001  0.0000  0.0000  0.0001  0.0000  0.0000  0.0000  0.0000  0.0000 </r>
        <r>  0.0001  0.0001  0.0000  0.0001  0.0000  0.0000  0.0000  0.0000  0.0000 </r>
        <r>  0.0001  0.0000  0.0000  0.0000  0.0000  0.0000  0.0000  0.0000  0.0000 </r>
        <r>  0.0001  0.0000  0.0000  0.0000  0.0000  0.0000  0.0000  0.0000  0.0000 </r>
        <r>  0.0002  0.0000  0.0001  0.0001  0.0000  0.0000  0.0000  0.0000  0.0000 </r>
        <r>  0.0000  0.0000  0.0000  0.0000  0.0000  0.0000  0.0000  0.0000  0.0000 </r>
        <r>  0.0001  0.0000  0.0000  0.0000  0.0000  0.0000  0.0000  0.0000  0.0000 </r>
        <r>  0.0001  0.0000  0.0000  0.0000  0.0000  0.0000  0.0000  0.0000  0.0000 </r>
        <r>  0.0003  0.0000  0.0002  0.0000  0.0000  0.0000  0.0000  0.0000  0.0000 </r>
        <r>  0.0006  0.0000  0.0001  0.0000  0.0000  0.0000  0.0000  0.0000  0.0000 </r>
        <r>  0.0006  0.0006  0.0000  0.0000  0.0000  0.0000  0.0000  0.0000  0.0000 </r>
        <r>  0.0004  0.0000  0.0001  0.0000  0.0000  0.0000  0.0000  0.0000  0.0000 </r>
        <r>  0.0005  0.0000  0.0005  0.0000  0.0000  0.0000  0.0000  0.0000  0.0000 </r>
        <r>  0.0005  0.0000  0.0000  0.0000  0.0000  0.0000  0.0000  0.0000  0.0000 </r>
       </set>
       <set comment="band 30">
        <r>  0.0003  0.0001  0.0000  0.0000  0.0000  0.0000  0.0000  0.0000  0.0000 </r>
        <r>  0.0003  0.0000  0.0000  0.0002  0.0000  0.0000  0.0000  0.0000  0.0000 </r>
        <r>  0.0008  0.0006  0.0000  0.0000  0.0000  0.0000  0.0000  0.0000  0.0000 </r>
        <r>  0.0004  0.0002  0.0000  0.0000  0.0000  0.0000  0.0000  0.0000  0.0000 </r>
        <r>  0.0000  0.0001  0.0001  0.0001  0.0000  0.0000  0.0000  0.0000  0.0000 </r>
        <r>  0.0000  0.0000  0.0000  0.0000  0.0000  0.0000  0.0000  0.0000  0.0000 </r>
        <r>  0.0000  0.0000  0.0000  0.0001  0.0000  0.0000  0.0000  0.0000  0.0000 </r>
        <r>  0.0000  0.0000  0.0000  0.0000  0.0000  0.0000  0.0000  0.0000  0.0000 </r>
        <r>  0.0004  0.0000  0.0001  0.0001  0.0000  0.0000  0.0000  0.0000  0.0000 </r>
        <r>  0.0002  0.0000  0.0000  0.0000  0.0000  0.0000  0.0000  0.0000  0.0000 </r>
        <r>  0.0000  0.0000  0.0000  0.0001  0.0000  0.0000  0.0000  0.0000  0.0000 </r>
        <r>  0.0000  0.0000  0.0000  0.0000  0.0000  0.0000  0.0000  0.0000  0.0000 </r>
        <r>  0.0019  0.0004  0.0007  0.0001  0.0000  0.0000  0.0000  0.0000  0.0000 </r>
        <r>  0.0038  0.0002  0.0010  0.0005  0.0000  0.0000  0.0000  0.0000  0.0000 </r>
        <r>  0.0000  0.0000  0.0033  0.0001  0.0000  0.0000  0.0000  0.0000  0.0000 </r>
        <r>  0.0001  0.0000  0.0043  0.0004  0.0000  0.0000  0.0000  0.0000  0.0000 </r>
        <r>  0.0012  0.0000  0.0007  0.0011  0.0000  0.0000  0.0000  0.0000  0.0000 </r>
        <r>  0.0001  0.0002  0.0037  0.0005  0.0000  0.0000  0.0000  0.0000  0.0000 </r>
       </set>
       <set comment="band 31">
        <r>  0.0001  0.0001  0.0000  0.0000  0.0000  0.0000  0.0000  0.0000  0.0000 </r>
        <r>  0.0001  0.0000  0.0000  0.0001  0.0000  0.0000  0.0000  0.0000  0.0000 </r>
        <r>  0.0000  0.0001  0.0000  0.0000  0.0000  0.0000  0.0000  0.0000  0.0000 </r>
        <r>  0.0000  0.0000  0.0000  0.0000  0.0000  0.0000  0.0000  0.0000  0.0000 </r>
        <r>  0.0000  0.0000  0.0000  0.0000  0.0000  0.0000  0.0000  0.0000  0.0000 </r>
        <r>  0.0000  0.0001  0.0000  0.0001  0.0000  0.0000  0.0000  0.0000  0.0000 </r>
        <r>  0.0000  0.0000  0.0000  0.0000  0.0000  0.0000  0.0000  0.0000  0.0000 </r>
        <r>  0.0000  0.0000  0.0000  0.0000  0.0000  0.0000  0.0000  0.0000  0.0000 </r>
        <r>  0.0000  0.0000  0.0000  0.0000  0.0000  0.0000  0.0000  0.0000  0.0000 </r>
        <r>  0.0000  0.0000  0.0000  0.0000  0.0000  0.0000  0.0000  0.0000  0.0000 </r>
        <r>  0.0000  0.0000  0.0000  0.0000  0.0000  0.0000  0.0000  0.0000  0.0000 </r>
        <r>  0.0000  0.0001  0.0000  0.0000  0.0000  0.0000  0.0000  0.0000  0.0000 </r>
        <r>  0.0009  0.0001  0.0002  0.0000  0.0000  0.0000  0.0000  0.0000  0.0000 </r>
        <r>  0.0004  0.0000  0.0000  0.0002  0.0000  0.0000  0.0000  0.0000  0.0000 </r>
        <r>  0.0000  0.0001  0.0001  0.0007  0.0000  0.0000  0.0000  0.0000  0.0000 </r>
        <r>  0.0002  0.0001  0.0000  0.0001  0.0000  0.0000  0.0000  0.0000  0.0000 </r>
        <r>  0.0000  0.0000  0.0000  0.0002  0.0000  0.0000  0.0000  0.0000  0.0000 </r>
        <r>  0.0000  0.0004  0.0000  0.0001  0.0000  0.0000  0.0000  0.0000  0.0000 </r>
       </set>
       <set comment="band 32">
        <r>  0.0001  0.0000  0.0000  0.0000  0.0000  0.0000  0.0000  0.0000  0.0000 </r>
        <r>  0.0000  0.0000  0.0000  0.0000  0.0000  0.0000  0.0000  0.0000  0.0000 </r>
        <r>  0.0000  0.0000  0.0000  0.0000  0.0000  0.0000  0.0000  0.0000  0.0000 </r>
        <r>  0.0000  0.0000  0.0000  0.0000  0.0000  0.0000  0.0000  0.0000  0.0000 </r>
        <r>  0.0000  0.0000  0.0000  0.0000  0.0000  0.0000  0.0000  0.0000  0.0000 </r>
        <r>  0.0000  0.0000  0.0000  0.0000  0.0000  0.0000  0.0000  0.0000  0.0000 </r>
        <r>  0.0000  0.0000  0.0000  0.0000  0.0000  0.0000  0.0000  0.0000  0.0000 </r>
        <r>  0.0004  0.0005  0.0001  0.0001  0.0000  0.0000  0.0000  0.0000  0.0000 </r>
        <r>  0.0008  0.0000  0.0010  0.0006  0.0000  0.0000  0.0000  0.0000  0.0000 </r>
        <r>  0.0001  0.0000  0.0000  0.0000  0.0000  0.0000  0.0000  0.0000  0.0000 </r>
        <r>  0.0000  0.0000  0.0000  0.0000  0.0000  0.0000  0.0000  0.0000  0.0000 </r>
        <r>  0.0000  0.0002  0.0000  0.0000  0.0000  0.0000  0.0000  0.0000  0.0000 </r>
        <r>  0.0001  0.0000  0.0002  0.0000  0.0000  0.0000  0.0000  0.0000  0.0000 </r>
        <r>  0.0002  0.0000  0.0001  0.0000  0.0000  0.0000  0.0000  0.0000  0.0000 </r>
        <r>  0.0001  0.0001  0.0001  0.0000  0.0000  0.0000  0.0000  0.0000  0.0000 </r>
        <r>  0.0005  0.0013  0.0002  0.0000  0.0000  0.0000  0.0000  0.0000  0.0000 </r>
        <r>  0.0010  0.0003  0.0027  0.0018  0.0000  0.0000  0.0000  0.0000  0.0000 </r>
        <r>  0.0001  0.0005  0.0001  0.0004  0.0000  0.0000  0.0000  0.0000  0.0000 </r>
       </set>
       <set comment="band 33">
        <r>  0.0001  0.0000  0.0000  0.0000  0.0000  0.0000  0.0000  0.0000  0.0000 </r>
        <r>  0.0000  0.0000  0.0000  0.0000  0.0000  0.0000  0.0000  0.0000  0.0000 </r>
        <r>  0.0000  0.0000  0.0000  0.0000  0.0000  0.0000  0.0000  0.0000  0.0000 </r>
        <r>  0.0000  0.0000  0.0000  0.0000  0.0000  0.0000  0.0000  0.0000  0.0000 </r>
        <r>  0.0000  0.0000  0.0000  0.0000  0.0000  0.0000  0.0000  0.0000  0.0000 </r>
        <r>  0.0001  0.0002  0.0000  0.0001  0.0000  0.0000  0.0000  0.0000  0.0000 </r>
        <r>  0.0000  0.0000  0.0000  0.0000  0.0000  0.0000  0.0000  0.0000  0.0000 </r>
        <r>  0.0005  0.0008  0.0001  0.0001  0.0000  0.0000  0.0000  0.0000  0.0000 </r>
        <r>  0.0000  0.0000  0.0000  0.0000  0.0000  0.0000  0.0000  0.0000  0.0000 </r>
        <r>  0.0000  0.0000  0.0000  0.0000  0.0000  0.0000  0.0000  0.0000  0.0000 </r>
        <r>  0.0001  0.0000  0.0000  0.0000  0.0000  0.0000  0.0000  0.0000  0.0000 </r>
        <r>  0.0000  0.0001  0.0000  0.0000  0.0000  0.0000  0.0000  0.0000  0.0000 </r>
        <r>  0.0000  0.0001  0.0000  0.0000  0.0000  0.0000  0.0000  0.0000  0.0000 </r>
        <r>  0.0000  0.0001  0.0000  0.0001  0.0000  0.0000  0.0000  0.0000  0.0000 </r>
        <r>  0.0001  0.0014  0.0000  0.0001  0.0000  0.0000  0.0000  0.0000  0.0000 </r>
        <r>  0.0009  0.0014  0.0004  0.0004  0.0000  0.0000  0.0000  0.0000  0.0000 </r>
        <r>  0.0000  0.0003  0.0000  0.0000  0.0000  0.0000  0.0000  0.0000  0.0000 </r>
        <r>  0.0002  0.0002  0.0000  0.0000  0.0000  0.0000  0.0000  0.0000  0.0000 </r>
       </set>
       <set comment="band 34">
        <r>  0.0000  0.0000  0.0000  0.0000  0.0000  0.0000  0.0000  0.0000  0.0000 </r>
        <r>  0.0000  0.0000  0.0000  0.0000  0.0000  0.0000  0.0000  0.0000  0.0000 </r>
        <r>  0.0000  0.0000  0.0000  0.0000  0.0000  0.0000  0.0000  0.0000  0.0000 </r>
        <r>  0.0000  0.0000  0.0000  0.0000  0.0000  0.0000  0.0000  0.0000  0.0000 </r>
        <r>  0.0001  0.0000  0.0000  0.0000  0.0000  0.0000  0.0000  0.0000  0.0000 </r>
        <r>  0.0002  0.0004  0.0000  0.0004  0.0000  0.0000  0.0000  0.0000  0.0000 </r>
        <r>  0.0000  0.0000  0.0000  0.0000  0.0000  0.0000  0.0000  0.0000  0.0000 </r>
        <r>  0.0001  0.0000  0.0000  0.0000  0.0000  0.0000  0.0000  0.0000  0.0000 </r>
        <r>  0.0001  0.0000  0.0001  0.0000  0.0000  0.0000  0.0000  0.0000  0.0000 </r>
        <r>  0.0001  0.0000  0.0000  0.0000  0.0000  0.0000  0.0000  0.0000  0.0000 </r>
        <r>  0.0000  0.0000  0.0000  0.0000  0.0000  0.0000  0.0000  0.0000  0.0000 </r>
        <r>  0.0004  0.0013  0.0001  0.0000  0.0000  0.0000  0.0000  0.0000  0.0000 </r>
        <r>  0.0000  0.0004  0.0000  0.0005  0.0000  0.0000  0.0000  0.0000  0.0000 </r>
        <r>  0.0000  0.0002  0.0000  0.0002  0.0000  0.0000  0.0000  0.0000  0.0000 </r>
        <r>  0.0006  0.0022  0.0000  0.0003  0.0000  0.0000  0.0000  0.0000  0.0000 </r>
        <r>  0.0000  0.0001  0.0001  0.0001  0.0000  0.0000  0.0000  0.0000  0.0000 </r>
        <r>  0.0000  0.0000  0.0003  0.0005  0.0000  0.0000  0.0000  0.0000  0.0000 </r>
        <r>  0.0012  0.0025  0.0002  0.0002  0.0000  0.0000  0.0000  0.0000  0.0000 </r>
       </set>
       <set comment="band 35">
        <r>  0.0000  0.0001  0.0000  0.0000  0.0000  0.0000  0.0000  0.0000  0.0000 </r>
        <r>  0.0001  0.0000  0.0000  0.0001  0.0000  0.0000  0.0000  0.0000  0.0000 </r>
        <r>  0.0002  0.0001  0.0000  0.0000  0.0000  0.0000  0.0000  0.0000  0.0000 </r>
        <r>  0.0000  0.0001  0.0000  0.0000  0.0000  0.0000  0.0000  0.0000  0.0000 </r>
        <r>  0.0000  0.0000  0.0001  0.0001  0.0000  0.0000  0.0000  0.0000  0.0000 </r>
        <r>  0.0001  0.0001  0.0000  0.0001  0.0000  0.0000  0.0000  0.0000  0.0000 </r>
        <r>  0.0001  0.0000  0.0000  0.0000  0.0000  0.0000  0.0000  0.0000  0.0000 </r>
        <r>  0.0000  0.0000  0.0000  0.0000  0.0000  0.0000  0.0000  0.0000  0.0000 </r>
        <r>  0.0001  0.0000  0.0001  0.0001  0.0000  0.0000  0.0000  0.0000  0.0000 </r>
        <r>  0.0000  0.0001  0.0000  0.0000  0.0000  0.0000  0.0000  0.0000  0.0000 </r>
        <r>  0.0001  0.0000  0.0000  0.0000  0.0000  0.0000  0.0000  0.0000  0.0000 </r>
        <r>  0.0001  0.0001  0.0000  0.0000  0.0000  0.0000  0.0000  0.0000  0.0000 </r>
        <r>  0.0003  0.0000  0.0004  0.0000  0.0000  0.0000  0.0000  0.0000  0.0000 </r>
        <r>  0.0006  0.0000  0.0003  0.0001  0.0000  0.0000  0.0000  0.0000  0.0000 </r>
        <r>  0.0004  0.0015  0.0000  0.0001  0.0000  0.0000  0.0000  0.0000  0.0000 </r>
        <r>  0.0005  0.0001  0.0001  0.0000  0.0000  0.0000  0.0000  0.0000  0.0000 </r>
        <r>  0.0005  0.0001  0.0004  0.0001  0.0000  0.0000  0.0000  0.0000  0.0000 </r>
        <r>  0.0008  0.0000  0.0000  0.0000  0.0000  0.0000  0.0000  0.0000  0.0000 </r>
       </set>
       <set comment="band 36">
        <r>  0.0005  0.0001  0.0000  0.0001  0.0000  0.0000  0.0000  0.0000  0.0000 </r>
        <r>  0.0003  0.0000  0.0000  0.0003  0.0000  0.0000  0.0000  0.0000  0.0000 </r>
        <r>  0.0004  0.0003  0.0000  0.0000  0.0000  0.0000  0.0000  0.0000  0.0000 </r>
        <r>  0.0003  0.0001  0.0000  0.0000  0.0000  0.0000  0.0000  0.0000  0.0000 </r>
        <r>  0.0000  0.0000  0.0000  0.0001  0.0000  0.0000  0.0000  0.0000  0.0000 </r>
        <r>  0.0000  0.0000  0.0000  0.0000  0.0000  0.0000  0.0000  0.0000  0.0000 </r>
        <r>  0.0000  0.0000  0.0000  0.0000  0.0000  0.0000  0.0000  0.0000  0.0000 </r>
        <r>  0.0001  0.0000  0.0000  0.0000  0.0000  0.0000  0.0000  0.0000  0.0000 </r>
        <r>  0.0001  0.0000  0.0000  0.0000  0.0000  0.0000  0.0000  0.0000  0.0000 </r>
        <r>  0.0000  0.0000  0.0000  0.0000  0.0000  0.0000  0.0000  0.0000  0.0000 </r>
        <r>  0.0001  0.0000  0.0000  0.0001  0.0000  0.0000  0.0000  0.0000  0.0000 </r>
        <r>  0.0000  0.0000  0.0000  0.0000  0.0000  0.0000  0.0000  0.0000  0.0000 </r>
        <r>  0.0024  0.0004  0.0004  0.0002  0.0000  0.0000  0.0000  0.0000  0.0000 </r>
        <r>  0.0022  0.0001  0.0005  0.0002  0.0000  0.0000  0.0000  0.0000  0.0000 </r>
        <r>  0.0000  0.0000  0.0034  0.0001  0.0000  0.0000  0.0000  0.0000  0.0000 </r>
        <r>  0.0001  0.0000  0.0021  0.0000  0.0000  0.0000  0.0000  0.0000  0.0000 </r>
        <r>  0.0001  0.0000  0.0001  0.0001  0.0000  0.0000  0.0000  0.0000  0.0000 </r>
        <r>  0.0000  0.0000  0.0021  0.0000  0.0000  0.0000  0.0000  0.0000  0.0000 </r>
       </set>
      </set>
     </set>
    </set>
   </array>
  </projected>
 </calculation>
 <structure name="finalpos" >
  <crystal>
   <varray name="basis" >
    <v>      20.00000000       0.00000000       0.00000000 </v>
    <v>       0.00000000      20.00000000       0.00000000 </v>
    <v>       0.00000000       0.00000000      20.00000000 </v>
   </varray>
   <i name="volume">   8000.00000000 </i>
   <varray name="rec_basis" >
    <v>       0.05000000       0.00000000       0.00000000 </v>
    <v>       0.00000000       0.05000000       0.00000000 </v>
    <v>       0.00000000       0.00000000       0.05000000 </v>
   </varray>
  </crystal>
  <varray name="positions" >
   <v>       0.51124062       0.46623857       0.43717445 </v>
   <v>       0.57839913       0.50959294       0.43450044 </v>
   <v>       0.51093804       0.53665413       0.57397861 </v>
   <v>       0.50011817       0.46195215       0.56215588 </v>
   <v>       0.60816968       0.49357895       0.53842680 </v>
   <v>       0.67720609       0.47725504       0.50467278 </v>
   <v>       0.42058803       0.43618088       0.48981140 </v>
   <v>       0.45280874       0.36564996       0.50646819 </v>
   <v>       0.33599459       0.49927235       0.53749474 </v>
   <v>       0.39631186       0.53668126       0.49965946 </v>
   <v>       0.49436342       0.56126524       0.46199648 </v>
   <v>       0.46632654       0.63090016       0.48746850 </v>
   <v>       0.53201546       0.50777169       0.41831399 </v>
   <v>       0.52894339       0.49238716       0.58641060 </v>
   <v>       0.64303049       0.51227550       0.50632958 </v>
   <v>       0.46366248       0.41011984       0.49018106 </v>
   <v>       0.36625554       0.49627755       0.49904548 </v>
   <v>       0.46506434       0.58476399       0.49859861 </v>
  </varray>
  <varray name="velocities" >
   <v>       0.00005353      -0.00019241       0.00034753 </v>
   <v>      -0.00034304       0.00011245       0.00016619 </v>
   <v>       0.00001954      -0.00006917      -0.00021569 </v>
   <v>      -0.00031915      -0.00048318      -0.00027299 </v>
   <v>       0.00000883       0.00004211       0.00009172 </v>
   <v>       0.00020909       0.00019655      -0.00071035 </v>
   <v>      -0.00005734       0.00070633      -0.00019411 </v>
   <v>       0.00008125      -0.00047799       0.00027646 </v>
   <v>       0.00054683       0.00036614       0.00031450 </v>
   <v>       0.00023290       0.00025299       0.00014641 </v>
   <v>       0.00004155       0.00010382       0.00008575 </v>
   <v>      -0.00008782       0.00038330      -0.00024288 </v>
   <v>       0.00001325       0.00003513      -0.00007894 </v>
   <v>       0.00006953       0.00008360       0.00010920 </v>
   <v>      -0.00004810      -0.00006629       0.00004086 </v>
   <v>       0.00004844      -0.00006900       0.00006673 </v>
   <v>      -0.00006223      -0.00001239      -0.00006984 </v>
   <v>      -0.00004502      -0.00002986      -0.00005504 </v>
  </varray>
 </structure>
</modeling>
