VaspCalc                                
           1
    20.000000    0.000000    0.000000
     0.000000   20.000000    0.000000
     0.000000    0.000000   20.000000
   H    O 
  12   6
Direct configuration=     1
   0.51568322  0.48423117  0.42426477
   0.58249050  0.51859334  0.44536113
   0.51030648  0.51481623  0.57655481
   0.50820197  0.44216098  0.55102519
   0.60732886  0.48689159  0.54283482
   0.67657777  0.46952515  0.50843798
   0.41689696  0.44174577  0.47943834
   0.44772549  0.37259916  0.45527827
   0.33481007  0.49683442  0.53871230
   0.39253709  0.53926366  0.50603488
   0.49623305  0.56798920  0.47684356
   0.46837095  0.63195920  0.51669403
   0.53932667  0.52737164  0.42192884
   0.53165925  0.47104088  0.58342033
   0.64137527  0.50294894  0.50975020
   0.45980651  0.41683209  0.47130327
   0.35967648  0.50252909  0.49733577
   0.46683393  0.58341133  0.51591139
Direct configuration=     2
   0.51551213  0.48430486  0.42388866
   0.58224939  0.51873774  0.44576845
   0.51077450  0.51453328  0.57688135
   0.50768027  0.44182024  0.55086013
   0.60715799  0.48684498  0.54331019
   0.67690071  0.46999768  0.50814018
   0.41767563  0.44183056  0.47969840
   0.44853357  0.37305044  0.45493269
   0.33520035  0.49654392  0.53913569
   0.39221463  0.53884733  0.50643738
   0.49675451  0.56783240  0.47677939
   0.46865727  0.63122662  0.51704143
   0.53928048  0.52724081  0.42190372
   0.53166215  0.47115426  0.58329795
   0.64137199  0.50295853  0.50979741
   0.45986015  0.41683198  0.47140160
   0.35952130  0.50261417  0.49730552
   0.46684775  0.58339921  0.51585648
Direct configuration=     3
   0.51533897  0.48436760  0.42351630
   0.58201077  0.51887582  0.44617462
   0.51120923  0.51430933  0.57719605
   0.50718482  0.44151569  0.55072720
   0.60701333  0.48680304  0.54376125
   0.67722454  0.47046210  0.50784569
   0.41840928  0.44192939  0.47995956
   0.44932171  0.37345680  0.45457091
   0.33559526  0.49625206  0.53954238
   0.39191712  0.53845975  0.50683931
   0.49725750  0.56768196  0.47673143
   0.46894648  0.63058166  0.51739084
   0.53923455  0.52711117  0.42187857
   0.53166563  0.47126169  0.58317431
   0.64136683  0.50296828  0.50984585
   0.45991766  0.41683367  0.47150077
   0.35936433  0.50269756  0.49727638
   0.46686245  0.58338126  0.51580045
Direct configuration=     4
   0.51516202  0.48440928  0.42315158
   0.58177629  0.51900121  0.44657830
   0.51158005  0.51420022  0.57748827
   0.50673844  0.44127863  0.55065247
   0.60691669  0.48676969  0.54416690
   0.67755017  0.47091239  0.50755785
   0.41905387  0.44205661  0.48022378
   0.45007223  0.37377878  0.45417763
   0.33599810  0.49595738  0.53991668
   0.39166893  0.53812813  0.50723975
   0.49772543  0.56754330  0.47671314
   0.46924229  0.63010691  0.51774538
   0.53918914  0.52698383  0.42185337
   0.53167031  0.47135776  0.58304844
   0.64135817  0.50297830  0.50989656
   0.45998271  0.41683861  0.47160157
   0.35920390  0.50277771  0.49724940
   0.46687874  0.58335197  0.51574223
Direct configuration=     5
   0.51498043  0.48442188  0.42279820
   0.58154679  0.51910783  0.44697753
   0.51186301  0.51424903  0.57774992
   0.50635863  0.44113320  0.55065405
   0.60688509  0.48674709  0.54451041
   0.67787697  0.47134452  0.50727988
   0.41957127  0.44222402  0.48049221
   0.45077131  0.37398950  0.45374144
   0.33641017  0.49565821  0.54024554
   0.39149025  0.53787474  0.50763719
   0.49814416  0.56742092  0.47673445
   0.46954860  0.62986343  0.51810850
   0.53914452  0.52685972  0.42182814
   0.53167673  0.47143826  0.58291969
   0.64134482  0.50298868  0.50995033
   0.46005835  0.41684764  0.47170457
   0.35903875  0.50285337  0.49722552
   0.46689717  0.58330726  0.51568095
Direct configuration=     6
   0.51479464  0.48440030  0.42245970
   0.58132217  0.51918996  0.44736974
   0.51204516  0.51447648  0.57797627
   0.50605659  0.44109530  0.55074152
   0.60693022  0.48673545  0.54478011
   0.67820239  0.47175664  0.50701485
   0.41993417  0.44243782  0.48076405
   0.45140974  0.37407996  0.45325748
   0.33683047  0.49535263  0.54051978
   0.39139421  0.53771384  0.50802857
   0.49850271  0.56731818  0.47680124
   0.46986832  0.62987573  0.51848255
   0.53910090  0.52673957  0.42180294
   0.53168513  0.47150094  0.58278778
   0.64132607  0.50299951  0.51000766
   0.46014666  0.41686089  0.47181007
   0.35886821  0.50292379  0.49720553
   0.46691812  0.58324536  0.51561608
Direct configuration=     7
   0.51460659  0.48434285  0.42213955
   0.58110147  0.51924247  0.44775169
   0.51212677  0.51487554  0.57816600
   0.50583680  0.44117209  0.55091598
   0.60705831  0.48673308  0.54496967
   0.67852204  0.47214903  0.50676578
   0.42012973  0.44269610  0.48103568
   0.45198283  0.37406087  0.45272903
   0.33725563  0.49503833  0.54073485
   0.39138476  0.53764975  0.50840854
   0.49879363  0.56723731  0.47691517
   0.47020219  0.63012508  0.51886735
   0.53905844  0.52662384  0.42177784
   0.53169531  0.47154580  0.58265273
   0.64130169  0.50301087  0.51006870
   0.46024855  0.41687776  0.47191800
   0.35869235  0.50298886  0.49719005
   0.46694187  0.58316729  0.51554752
Direct configuration=     8
   0.51441982  0.48425138  0.42184111
   0.58088289  0.51926085  0.44811964
   0.51212053  0.51541252  0.57832045
   0.50569676  0.44136187  0.55117028
   0.60727022  0.48673644  0.54507825
   0.67883000  0.47252361  0.50653550
   0.42016094  0.44298799  0.48130022
   0.45248953  0.37396041  0.45216728
   0.33768026  0.49471262  0.54089119
   0.39145626  0.53767656  0.50876921
   0.49901324  0.56717929  0.47707377
   0.47054832  0.63055524  0.51925941
   0.53901722  0.52651271  0.42175295
   0.53170673  0.47157505  0.58251496
   0.64127193  0.50302287  0.51013331
   0.46036369  0.41689715  0.47202798
   0.35851200  0.50304913  0.49717954
   0.46696864  0.58307649  0.51547565
Direct configuration=     9
   0.51423919  0.48413087  0.42156769
   0.58066415  0.51924138  0.44846948
   0.51204809  0.51603424  0.57844247
   0.50562686  0.44165399  0.55148939
   0.60756160  0.48674018  0.54511051
   0.67911941  0.47288345  0.50632662
   0.42004521  0.44329463  0.48154792
   0.45293129  0.37381855  0.45158953
   0.33809742  0.49437250  0.54099392
   0.39159447  0.53777947  0.50910048
   0.49916163  0.56714382  0.47727076
   0.47090246  0.63108599  0.51965222
   0.53897726  0.52640611  0.42172837
   0.53171869  0.47159269  0.58237532
   0.64123745  0.50303565  0.51020099
   0.46049071  0.41691775  0.47213940
   0.35832863  0.50310570  0.49717433
   0.46699854  0.58297799  0.51540131
Direct configuration=    10
   0.51407042  0.48398870  0.42132247
   0.58044284  0.51918117  0.44879703
   0.51193546  0.51667819  0.57853529
   0.50561035  0.44202909  0.55185074
   0.60792300  0.48673721  0.54507657
   0.67938329  0.47323207  0.50614141
   0.41981078  0.44359179  0.48176719
   0.45331083  0.37367998  0.45101637
   0.33849924  0.49401476  0.54105225
   0.39177887  0.53793750  0.50939093
   0.49924244  0.56712923  0.47749648
   0.47125879  0.63162984  0.52003728
   0.53893848  0.52630374  0.42170420
   0.53173064  0.47160382  0.58223511
   0.64119931  0.50304946  0.51027095
   0.46062746  0.41693833  0.47225156
   0.35814418  0.50316005  0.49717454
   0.46703154  0.58287733  0.51532568
Direct configuration=    11
   0.51391948  0.48383358  0.42110841
   0.58021678  0.51907818  0.44909829
   0.51180874  0.51728221  0.57860182
   0.50562379  0.44245984  0.55222508
   0.60834017  0.48671884  0.54499177
   0.67961534  0.47357287  0.50598173
   0.41949207  0.44385321  0.48194581
   0.45363124  0.37358735  0.45046867
   0.33887766  0.49363619  0.54107827
   0.39198565  0.53812658  0.50962898
   0.49926262  0.56713245  0.47773841
   0.47161091  0.63210548  0.52040536
   0.53890076  0.52620520  0.42168050
   0.53174242  0.47161403  0.58209609
   0.64115883  0.50306466  0.51034209
   0.46077140  0.41695791  0.47236377
   0.35796083  0.50321383  0.49718014
   0.46706748  0.58277978  0.51525017
Direct configuration=    12
   0.51379207  0.48367489  0.42092809
   0.57998438  0.51893138  0.44936964
   0.51169110  0.51779175  0.57864431
   0.50563845  0.44291275  0.55257826
   0.60879461  0.48667491  0.54487618
   0.67981106  0.47390835  0.50584883
   0.41912533  0.44405385  0.48207229
   0.45389557  0.37357644  0.44996505
   0.33922515  0.49323397  0.54108546
   0.39219056  0.53832258  0.50980402
   0.49923187  0.56714926  0.47798187
   0.47195274  0.63244675  0.52074780
   0.53886394  0.52610995  0.42165733
   0.53175435  0.47162876  0.58196037
   0.64111755  0.50308174  0.51041306
   0.46091989  0.41697590  0.47247544
   0.35778075  0.50326868  0.49719094
   0.46710598  0.58268974  0.51517629
Direct configuration=    13
   0.51369298  0.48352159  0.42078363
   0.57974492  0.51874065  0.44960822
   0.51160118  0.51816418  0.57866451
   0.50562299  0.44335132  0.55287424
   0.60926448  0.48659428  0.54475352
   0.67996842  0.47423966  0.50574324
   0.41874533  0.44417227  0.48213677
   0.45410654  0.37367299  0.44952001
   0.33953552  0.49280597  0.54108689
   0.39237115  0.53850347  0.50990745
   0.49916200  0.56717446  0.47821081
   0.47227904  0.63260635  0.52105734
   0.53882782  0.52601741  0.42163469
   0.53176721  0.47165291  0.58183022
   0.64107705  0.50310136  0.51048233
   0.46107040  0.41699213  0.47258616
   0.35760590  0.50332604  0.49720665
   0.46714647  0.58261053  0.51510558
Direct configuration=    14
   0.51362557  0.48338134  0.42067644
   0.57949893  0.51850684  0.44981208
   0.51155222  0.51837101  0.57866383
   0.50554751  0.44374057  0.55307953
   0.60972623  0.48646555  0.54464921
   0.68008821  0.47456641  0.50566470
   0.41838317  0.44419205  0.48213176
   0.45426653  0.37389108  0.44914265
   0.33980454  0.49235122  0.54109350
   0.39250829  0.53865081  0.50993329
   0.49906597  0.56720211  0.47840877
   0.47258592  0.63255697  0.52132885
   0.53879222  0.52592708  0.42161255
   0.53178201  0.47169036  0.58170777
   0.64103887  0.50312428  0.51054832
   0.46122070  0.41700684  0.47269570
   0.35743788  0.50338703  0.49722698
   0.46718826  0.58254425  0.51503944
Direct configuration=    15
   0.51359137  0.48325989  0.42060712
   0.57924832  0.51823162  0.44998046
   0.51155183  0.51839887  0.57864348
   0.50538902  0.44405275  0.55316873
   0.61015700  0.48627825  0.54458780
   0.68017432  0.47488660  0.50561208
   0.41806499  0.44410255  0.48205241
   0.45437760  0.37423258  0.44883598
   0.34003044  0.49187020  0.54111255
   0.39258712  0.53875071  0.50987861
   0.49895682  0.56722609  0.47856012
   0.47287107  0.63229152  0.52155982
   0.53875697  0.52583847  0.42159083
   0.53179967  0.47174359  0.58159468
   0.64100432  0.50315131  0.51060955
   0.46136889  0.41702067  0.47280409
   0.35727787  0.50345240  0.49725165
   0.46723055  0.58249179  0.51497905
Direct configuration=    16
   0.51358984  0.48316066  0.42057539
   0.57899649  0.51791751  0.45011377
   0.51160183  0.51824973  0.57860463
   0.50513642  0.44427232  0.55312950
   0.61053733  0.48602429  0.54458964
   0.68023360  0.47519667  0.50558343
   0.41781147  0.44389893  0.48189667
   0.45444146  0.37468729  0.44859655
   0.34021407  0.49136518  0.54114673
   0.39259763  0.53879415  0.50974371
   0.49884640  0.56724050  0.47865130
   0.47313408  0.63182309  0.52175063
   0.53872195  0.52575125  0.42156943
   0.53182079  0.47181333  0.58149176
   0.64097426  0.50318320  0.51066486
   0.46151348  0.41703464  0.47291163
   0.35712649  0.50352249  0.49728049
   0.46727249  0.58245277  0.51492526
Direct configuration=    17
   0.51361828  0.48308448  0.42058001
   0.57874821  0.51756777  0.45021358
   0.51169812  0.51794112  0.57854834
   0.50479368  0.44439871  0.55296518
   0.61085387  0.48569955  0.54466772
   0.68027526  0.47549194  0.50557611
   0.41763750  0.44358208  0.48166523
   0.45445953  0.37523366  0.44841457
   0.34035887  0.49084038  0.54119384
   0.39253491  0.53877726  0.50953206
   0.49874419  0.56724028  0.47867201
   0.47337679  0.63118501  0.52190500
   0.53868707  0.52566517  0.42154823
   0.53184539  0.47189843  0.58139886
   0.64094904  0.50322054  0.51071356
   0.46165339  0.41705013  0.47301884
   0.35698388  0.50359716  0.49731346
   0.46731330  0.58242552  0.51487849
Direct configuration=    18
   0.51367187  0.48302959  0.42061888
   0.57850944  0.51718635  0.45028248
   0.51183044  0.51750612  0.57847543
   0.50437958  0.44444558  0.55269418
   0.61110129  0.48530516  0.54482525
   0.68031000  0.47576719  0.50558696
   0.41755181  0.44315839  0.48136150
   0.45443304  0.37584045  0.44827435
   0.34047046  0.49030191  0.54124730
   0.39239933  0.53870139  0.50925017
   0.49865627  0.56722173  0.47861637
   0.47360365  0.63043053  0.52203019
   0.53865231  0.52558014  0.42152709
   0.53187297  0.47199583  0.58131490
   0.64092836  0.50326358  0.51075563
   0.46178794  0.41706870  0.47312650
   0.35684962  0.50367588  0.49735059
   0.46735223  0.58240704  0.51483864
Direct configuration=    19
   0.51374386  0.48299182  0.42068907
   0.57828689  0.51677782  0.45032379
   0.51198250  0.51699252  0.57838625
   0.50392431  0.44443704  0.55234600
   0.61128270  0.48484811  0.54505488
   0.68034875  0.47601746  0.50561255
   0.41755661  0.44263961  0.48099149
   0.45436327  0.37646929  0.44815554
   0.34055606  0.48975749  0.54129732
   0.39219664  0.53857314  0.50890741
   0.49858474  0.56718289  0.47848348
   0.47382194  0.62963094  0.52213700
   0.53861773  0.52549620  0.42150589
   0.53190274  0.47210092  0.58123813
   0.64091136  0.50331224  0.51079168
   0.46191692  0.41709205  0.47323553
   0.35672282  0.50375767  0.49739194
   0.46738867  0.58239312  0.51480508
Direct configuration=    20
   0.51382597  0.48296501  0.42078699
   0.57808756  0.51634736  0.45034122
   0.51213263  0.51646050  0.57828052
   0.50346418  0.44440237  0.55195583
   0.61140852  0.48434092  0.54533979
   0.68040128  0.47623886  0.50564948
   0.41764703  0.44204257  0.48056366
   0.45425204  0.37707870  0.44803518
   0.34062379  0.48921604  0.54133252
   0.39193795  0.53840435  0.50851559
   0.49852776  0.56712380  0.47827744
   0.47404165  0.62887068  0.52223916
   0.53858347  0.52541346  0.42148452
   0.53193386  0.47220800  0.58116648
   0.64089676  0.50336600  0.51082293
   0.46204051  0.41712169  0.47334686
   0.35660216  0.50384118  0.49743752
   0.46742210  0.58237855  0.51477665
Direct configuration=    21
   0.51390883  0.48294165  0.42090865
   0.57791804  0.51590064  0.45033843
   0.51225561  0.51597766  0.57815722
   0.50303624  0.44437092  0.55155932
   0.61149419  0.48380048  0.54565633
   0.68047485  0.47642940  0.50569460
   0.41781061  0.44138896  0.48008862
   0.45410232  0.37762902  0.44789070
   0.34068192  0.48868700  0.54134169
   0.39163949  0.53821168  0.50808853
   0.49848016  0.56704643  0.47800681
   0.47427447  0.62823747  0.52235183
   0.53854975  0.52533212  0.42146293
   0.53196567  0.47231089  0.58109786
   0.64088308  0.50342398  0.51085098
   0.46215936  0.41715872  0.47346129
   0.35648594  0.50392474  0.49748722
   0.46745216  0.58235781  0.51475184
Direct configuration=    22
   0.51398270  0.48291379  0.42104982
   0.57778400  0.51544382  0.45031861
   0.51232612  0.51561073  0.57801481
   0.50267411  0.44436844  0.55118860
   0.61155733  0.48324629  0.54597737
   0.68057318  0.47658947  0.50574525
   0.41802705  0.44070488  0.47957875
   0.45391915  0.37808810  0.44770351
   0.34073817  0.48817970  0.54131549
   0.39132190  0.53801591  0.50764136
   0.49843447  0.56695452  0.47768346
   0.47453178  0.62780768  0.52248888
   0.53851687  0.52525237  0.42144111
   0.53199776  0.47240369  0.58103047
   0.64086895  0.50348497  0.51087764
   0.46227446  0.41720346  0.47357925
   0.35637220  0.50400645  0.49754071
   0.46747864  0.58232592  0.51472900
Direct configuration=    23
   0.51403821  0.48287402  0.42120633
   0.57768954  0.51498352  0.45028411
   0.51232348  0.51541472  0.57785167
   0.50240510  0.44441479  0.55086984
   0.61161516  0.48269865  0.54627565
   0.68069594  0.47672220  0.50579931
   0.41826872  0.44001991  0.47904762
   0.45371044  0.37843612  0.44746253
   0.34079919  0.48770260  0.54124793
   0.39100881  0.53784048  0.50718979
   0.49838224  0.56685313  0.47732125
   0.47482207  0.62762963  0.52265970
   0.53848519  0.52517435  0.42141915
   0.53202982  0.47248165  0.58096285
   0.64085320  0.50354756  0.51090466
   0.46238709  0.41725523  0.47370059
   0.35625887  0.50408434  0.49759742
   0.46750166  0.58227959  0.51470665
Direct configuration=    24
   0.51406711  0.48281649  0.42137423
   0.57763682  0.51452668  0.45023617
   0.51223666  0.51542186  0.57766679
   0.50224869  0.44452294  0.55062193
   0.61168258  0.48217702  0.54652636
   0.68083878  0.47683320  0.50585527
   0.41850222  0.43936554  0.47850914
   0.45348746  0.37866844  0.44716645
   0.34087009  0.48726254  0.54113743
   0.39072461  0.53770924  0.50674903
   0.49831526  0.56674810  0.47693461
   0.47514846  0.62771124  0.52286645
   0.53845508  0.52509806  0.42139718
   0.53206143  0.47254183  0.58089397
   0.64083511  0.50361024  0.51093361
   0.46249867  0.41731227  0.47382454
   0.35614392  0.50415651  0.49765652
   0.46752162  0.58221797  0.51468374
Direct configuration=    25
   0.51406293  0.48273787  0.42154999
   0.57762580  0.51408053  0.45017480
   0.51206764  0.51563458  0.57746039
   0.50221577  0.44469862  0.55045599
   0.61177100  0.48169877  0.54670906
   0.68099410  0.47693011  0.50591209
   0.41869179  0.43877294  0.47797667
   0.45326465  0.37879528  0.44682414
   0.34095413  0.48686420  0.54098753
   0.39049141  0.53764346  0.50633284
   0.49822652  0.56664546  0.47653742
   0.47550743  0.62801779  0.52310311
   0.53842695  0.52502336  0.42137541
   0.53209185  0.47258367  0.58082322
   0.64081436  0.50367149  0.51096576
   0.46261059  0.41737190  0.47394966
   0.35602559  0.50422135  0.49771695
   0.46753934  0.58214284  0.51465979
Direct configuration=    26
   0.51402152  0.48263789  0.42173062
   0.57765429  0.51365234  0.45009884
   0.51183165  0.51602544  0.57723413
   0.50230841  0.44494038  0.55037516
   0.61188774  0.48127822  0.54680879
   0.68115216  0.47702177  0.50596910
   0.41880425  0.43827010  0.47746212
   0.45305866  0.37883872  0.44645293
   0.34105266  0.48650978  0.54080698
   0.39032575  0.53765868  0.50595257
   0.49811086  0.56655091  0.47614215
   0.47588957  0.62848140  0.52335677
   0.53840114  0.52494991  0.42135410
   0.53212008  0.47260892  0.58075039
   0.64079103  0.50372993  0.51100201
   0.46272391  0.41743091  0.47407409
   0.35590264  0.50427777  0.49777748
   0.46755587  0.58205805  0.51463484
Direct configuration=    27
   0.51394131  0.48251961  0.42191375
   0.57771810  0.51324929  0.45000615
   0.51155407  0.51654411  0.57699095
   0.50251987  0.44523962  0.55037449
   0.61203592  0.48092599  0.54681667
   0.68130246  0.47711726  0.50602584
   0.41881473  0.43787901  0.47697530
   0.45288695  0.37882793  0.44607557
   0.34116523  0.48619891  0.54060942
   0.39023573  0.53776193  0.50561660
   0.49796522  0.56646941  0.47575941
   0.47628163  0.62901719  0.52361057
   0.53837794  0.52487713  0.42133355
   0.53214498  0.47262123  0.58067569
   0.64076556  0.50378438  0.51104288
   0.46283910  0.41748602  0.47419572
   0.35577447  0.50432537  0.49783674
   0.46757238  0.58196856  0.51460930
Direct configuration=    28
   0.51382326  0.48238918  0.42209755
   0.57781152  0.51287820  0.44989397
   0.51126544  0.51712807  0.57673456
   0.50283471  0.44558071  0.55044081
   0.61221446  0.48064855  0.54673022
   0.68143521  0.47722500  0.50608188
   0.41871196  0.43761325  0.47652362
   0.45276621  0.37879416  0.44571663
   0.34128983  0.48592883  0.54041237
   0.39021947  0.53795024  0.50533019
   0.49778865  0.56640476  0.47539770
   0.47666912  0.62953931  0.52384679
   0.53835754  0.52480433  0.42131407
   0.53216561  0.47262548  0.58059979
   0.64073861  0.50383397  0.51108850
   0.46295584  0.41753438  0.47431246
   0.35564128  0.50436450  0.49789329
   0.46759001  0.58187942  0.51458379
Direct configuration=    29
   0.51367053  0.48225514  0.42228081
   0.57792776  0.51254530  0.44975926
   0.51099648  0.51771326  0.57646884
   0.50322925  0.44594131  0.55055292
   0.61241820  0.48044793  0.54655332
   0.68154250  0.47735194  0.50613672
   0.41850113  0.43747704  0.47611230
   0.45271100  0.37876651  0.44539939
   0.34142342  0.48569487  0.54023575
   0.39026538  0.53821093  0.50509584
   0.49758216  0.56635948  0.47506341
   0.47703838  0.62997241  0.52404937
   0.53834004  0.52473065  0.42129596
   0.53218148  0.47262706  0.58052382
   0.64071104  0.50387817  0.51113860
   0.46307291  0.41757387  0.47442247
   0.35550395  0.50439624  0.49794574
   0.46760971  0.58179509  0.51455897
Direct configuration=    30
   0.51348806  0.48212747  0.42246279
   0.57805963  0.51225604  0.44959913
   0.51077447  0.51824184  0.57619745
   0.50367278  0.44629321  0.55068235
   0.61263803  0.48032155  0.54629614
   0.68161936  0.47750291  0.50618968
   0.41820341  0.43746580  0.47574498
   0.45273270  0.37876888  0.44514339
   0.34156263  0.48549146  0.54009964
   0.39035419  0.53852353  0.50491391
   0.49734834  0.56633474  0.47476090
   0.47737787  0.63025802  0.52420548
   0.53832541  0.52465521  0.42127947
   0.53219272  0.47263136  0.58044938
   0.64068379  0.50391688  0.51119256
   0.46318827  0.41760327  0.47452421
   0.35536392  0.50442219  0.49799279
   0.46763218  0.58171908  0.51453539
Direct configuration=    31
   0.51328193  0.48201656  0.42264321
   0.57820007  0.51201485  0.44941123
   0.51062125  0.51866668  0.57592363
   0.50412987  0.44660424  0.55079533
   0.61286112  0.48026225  0.54597480
   0.68166429  0.47768027  0.50623987
   0.41785217  0.43756807  0.47542431
   0.45283898  0.37881807  0.44496274
   0.34170457  0.48531316  0.54002179
   0.39046204  0.53886289  0.50478335
   0.49709104  0.56633046  0.47449281
   0.47767890  0.63035695  0.52430623
   0.53831357  0.52457715  0.42126479
   0.53220010  0.47264335  0.58037842
   0.64065784  0.50395042  0.51124940
   0.46329932  0.41762229  0.47461660
   0.35522294  0.50444422  0.49803338
   0.46765785  0.58165375  0.51451350
Direct configuration=    32
   0.51305879  0.48193210  0.42282213
   0.57834278  0.51182494  0.44919411
   0.51055230  0.51895345  0.57565012
   0.50456419  0.44684151  0.55085647
   0.61307127  0.48025858  0.54561065
   0.68167960  0.47788377  0.50628622
   0.41748761  0.43776799  0.47515239
   0.45303354  0.37892280  0.44486525
   0.34184751  0.48515589  0.54001517
   0.39056384  0.53920245  0.50470230
   0.49681491  0.56634546  0.47426029
   0.47793603  0.63024993  0.52434706
   0.53830432  0.52449573  0.42125201
   0.53220481  0.47266721  0.58031299
   0.64063420  0.50397954  0.51130784
   0.46340328  0.41763141  0.47469899
   0.35508277  0.50446420  0.49806680
   0.46768686  0.58160031  0.51449353
Direct configuration=    33
   0.51282532  0.48188219  0.42299989
   0.57848272  0.51168824  0.44894746
   0.51057659  0.51908126  0.57537915
   0.50494371  0.44697596  0.55083400
   0.61324966  0.48029546  0.54522909
   0.68167123  0.47811057  0.50632749
   0.41715108  0.43804765  0.47493086
   0.45331620  0.37908324  0.44485193
   0.34199140  0.48501796  0.54008591
   0.39063607  0.53951716  0.50466852
   0.49652512  0.56637766  0.47406330
   0.47814741  0.62993741  0.52432782
   0.53829740  0.52441035  0.42124111
   0.53220817  0.47270608  0.58025498
   0.64061379  0.50400535  0.51136637
   0.46349752  0.41763181  0.47477120
   0.35494502  0.50448374  0.49809278
   0.46771907  0.58155882  0.51447552
Direct configuration=    34
   0.51258772  0.48187264  0.42317705
   0.57861655  0.51160522  0.44867237
   0.51069655  0.51904276  0.57511235
   0.50524629  0.44698753  0.55070574
   0.61337607  0.48035539  0.54485775
   0.68164828  0.47835555  0.50636245
   0.41688059  0.43838894  0.47476095
   0.45368306  0.37929108  0.44491683
   0.34213804  0.48490056  0.54023233
   0.39065888  0.53978564  0.50467959
   0.49622701  0.56642428  0.47390080
   0.47831507  0.62943943  0.52425287
   0.53829250  0.52432064  0.42123195
   0.53221132  0.47276162  0.58020572
   0.64059747  0.50402928  0.51142333
   0.46357980  0.41762522  0.47483354
   0.35481099  0.50450404  0.49811154
   0.46775405  0.58152822  0.51445928
Direct configuration=    35
   0.51235141  0.48190645  0.42335431
   0.57874287  0.51157494  0.44837135
   0.51090817  0.51884429  0.57485056
   0.50546409  0.44686948  0.55046411
   0.61343080  0.48042029  0.54452376
   0.68162206  0.47861182  0.50638997
   0.41670781  0.43877473  0.47464326
   0.45412692  0.37952992  0.44504738
   0.34229078  0.48480773  0.54044504
   0.39061730  0.53999151  0.50473301
   0.49592591  0.56648202  0.47377099
   0.47844521  0.62879542  0.52413108
   0.53828925  0.52422647  0.42122427
   0.53221490  0.47283383  0.58016566
   0.64058589  0.50405287  0.51147710
   0.46364849  0.41761381  0.47488680
   0.35468157  0.50452580  0.49812378
   0.46779108  0.58150626  0.51444438
Direct configuration=    36
   0.51212074  0.48198359  0.42353249
   0.57886245  0.51159502  0.44804840
   0.51120097  0.51850616  0.57459347
   0.50560490  0.44663020  0.55011819
   0.61339712  0.48047379  0.54425061
   0.68160493  0.47887142  0.50640927
   0.41665648  0.43918948  0.47457757
   0.45463783  0.37977637  0.44522509
   0.34245393  0.48474573  0.54070840
   0.39050180  0.54012413  0.50482616
   0.49562702  0.56654723  0.47367132
   0.47854845  0.62806342  0.52397568
   0.53828725  0.52412797  0.42121768
   0.53221901  0.47292086  0.58013434
   0.64057946  0.50407765  0.51152628
   0.46370259  0.41760008  0.47493219
   0.35455725  0.50454923  0.49813061
   0.46782916  0.58148963  0.51443016
Direct configuration=    37
   0.51189884  0.48210094  0.42371246
   0.57897809  0.51166177  0.44770886
   0.51155787  0.51806294  0.57433922
   0.50568979  0.44629163  0.54969196
   0.61326390  0.48050373  0.54405487
   0.68160879  0.47912616  0.50642010
   0.41674168  0.43961951  0.47456268
   0.45520386  0.38000197  0.44542708
   0.34263194  0.48472195  0.54100259
   0.39030850  0.54017894  0.50495633
   0.49533540  0.56661605  0.47359856
   0.47863954  0.62731747  0.52380363
   0.53828609  0.52402554  0.42121168
   0.53222336  0.47301911  0.58011041
   0.64057823  0.50410488  0.51156986
   0.46374176  0.41758672  0.47497128
   0.35443816  0.50457410  0.49813341
   0.46786702  0.58147404  0.51441576
Direct configuration=    38
   0.51168756  0.48225239  0.42389520
   0.57909439  0.51177037  0.44735915
   0.51195547  0.51756308  0.57408388
   0.50574818  0.44588513  0.54921935
   0.61302778  0.48050406  0.54394376
   0.68164353  0.47936844  0.50642296
   0.41696972  0.44005314  0.47459619
   0.45581207  0.38017621  0.44562835
   0.34282856  0.48474365  0.54130626
   0.39003909  0.54015751  0.50512061
   0.49505600  0.56668462  0.47354875
   0.47873631  0.62664149  0.52363416
   0.53828535  0.52391980  0.42120568
   0.53222755  0.47312353  0.58009208
   0.64058188  0.50413544  0.51160736
   0.46376625  0.41757636  0.47500585
   0.35432410  0.50459984  0.49813366
   0.46790322  0.58145461  0.51440025
Direct configuration=    39
   0.51148748  0.48242918  0.42408179
   0.57921725  0.51191509  0.44700644
   0.51236506  0.51706674  0.57382119
   0.50581206  0.44544624  0.54873826
   0.61269415  0.48047579  0.54391413
   0.68171564  0.47959213  0.50641924
   0.41733816  0.44048087  0.47467442
   0.45644955  0.38027075  0.44580510
   0.34304611  0.48481671  0.54159895
   0.38970064  0.54006747  0.50531597
   0.49479379  0.56674921  0.47351718
   0.47885725  0.62611835  0.52348624
   0.53828465  0.52381160  0.42119904
   0.53223135  0.47322807  0.58007738
   0.64058972  0.50416966  0.51163889
   0.46377687  0.41757136  0.47503772
   0.35421459  0.50462557  0.49813280
   0.46793626  0.58142654  0.51438279
Direct configuration=    40
   0.51129813  0.48262041  0.42427344
   0.57935317  0.51208960  0.44665818
   0.51275500  0.51664074  0.57354268
   0.50591119  0.44500997  0.54828507
   0.61227673  0.48042649  0.54395346
   0.68182714  0.47979314  0.50641131
   0.41783597  0.44089557  0.47479238
   0.45710446  0.38026425  0.44593844
   0.34328496  0.48494467  0.54186326
   0.38930529  0.53992222  0.50553922
   0.49455386  0.56680643  0.47349831
   0.47901802  0.62581461  0.52337524
   0.53828366  0.52370193  0.42119107
   0.53223490  0.47332633  0.58006458
   0.64060078  0.50420733  0.51166511
   0.46377490  0.41757344  0.47506846
   0.35410892  0.50465024  0.49813209
   0.46796485  0.58138605  0.51436279
Direct configuration=    41
   0.51111824  0.48281371  0.42447152
   0.57950828  0.51228733  0.44632148
   0.51309464  0.51634990  0.57323861
   0.50606979  0.44460733  0.54789089
   0.61179564  0.48036868  0.54404224
   0.68197508  0.47996984  0.50640243
   0.41844358  0.44129287  0.47494384
   0.45776667  0.38014682  0.44601789
   0.34354328  0.48512793  0.54208644
   0.38886971  0.53974041  0.50578707
   0.49434149  0.56685340  0.47348585
   0.47922738  0.62576502  0.52330960
   0.53828215  0.52359191  0.42118112
   0.53223860  0.47341225  0.58005231
   0.64061399  0.50424781  0.51168704
   0.46376206  0.41758341  0.47509921
   0.35400623  0.50467271  0.49813252
   0.46798812  0.58133130  0.51434023
Direct configuration=    42
   0.51094621  0.48299609  0.42467759
   0.57968745  0.51250183  0.44600263
   0.51335948  0.51624549  0.57289965
   0.50630498  0.44426331  0.54757941
   0.61127478  0.48031758  0.54415724
   0.68215175  0.48012296  0.50639662
   0.41913322  0.44167164  0.47512152
   0.45842782  0.37992276  0.44604328
   0.34381693  0.48536346  0.54226145
   0.38841416  0.53954485  0.50605610
   0.49416202  0.56688794  0.47347305
   0.47948456  0.62596321  0.52328881
   0.53827999  0.52348264  0.42116858
   0.53224294  0.47348104  0.58003964
   0.64062829  0.50429012  0.51170589