       N       E                     dE             d eps       ncg     rms          rms(c)
DAV:   1     0.517402100101E+03    0.51740E+03   -0.85836E+03    88   0.539E+02
DAV:   2     0.227923425525E+03   -0.28948E+03   -0.27522E+03   128   0.111E+02
DAV:   3    -0.398696976386E+02   -0.26779E+03   -0.26359E+03   120   0.105E+02
DAV:   4    -0.955770779572E+02   -0.55707E+02   -0.55592E+02    84   0.664E+01
DAV:   5    -0.967027465315E+02   -0.11257E+01   -0.11252E+01    88   0.125E+01    0.182E+01
RMM:   6    -0.875521905784E+02    0.91506E+01   -0.35733E+01    96   0.248E+01    0.713E+00
RMM:   7    -0.871759639635E+02    0.37623E+00   -0.19057E+00    96   0.465E+00    0.460E+00
RMM:   8    -0.869260970021E+02    0.24987E+00   -0.50819E-01    96   0.386E+00    0.730E-01
RMM:   9    -0.868930010252E+02    0.33096E-01   -0.17351E-01    96   0.141E+00    0.365E-01
RMM:  10    -0.868893623988E+02    0.36386E-02   -0.17509E-02    92   0.470E-01    0.184E-01
RMM:  11    -0.868904622519E+02   -0.10999E-02   -0.77561E-03    92   0.345E-01    0.958E-02
RMM:  12    -0.869045145084E+02   -0.14052E-01   -0.10256E-02    90   0.278E-01    0.826E-02
RMM:  13    -0.869116190651E+02   -0.71046E-02   -0.26490E-03    90   0.193E-01    0.349E-02
RMM:  14    -0.869167567619E+02   -0.51377E-02   -0.76052E-04    89   0.870E-02    0.442E-02
RMM:  15    -0.869196393481E+02   -0.28826E-02   -0.91607E-04    89   0.100E-01    0.192E-02
RMM:  16    -0.869213288793E+02   -0.16895E-02   -0.29911E-04    87   0.561E-02    0.848E-03
RMM:  17    -0.869217773782E+02   -0.44850E-03   -0.82986E-05    94   0.287E-02    0.103E-02
RMM:  18    -0.869220606274E+02   -0.28325E-03   -0.19764E-05    92   0.148E-02    0.328E-03
RMM:  19    -0.869222215699E+02   -0.16094E-03   -0.10469E-05    89   0.119E-02    0.394E-03
RMM:  20    -0.869222782248E+02   -0.56655E-04   -0.12211E-06    71   0.407E-03    0.245E-03
RMM:  21    -0.869223224426E+02   -0.44218E-04   -0.24981E-06    68   0.611E-03    0.102E-03
RMM:  22    -0.869223310340E+02   -0.85914E-05   -0.41729E-07    70   0.275E-03    0.386E-04
RMM:  23    -0.869223367147E+02   -0.56806E-05   -0.12820E-07    58   0.143E-03    0.482E-04
RMM:  24    -0.869223396183E+02   -0.29036E-05   -0.55669E-08    48   0.116E-03    0.204E-04
RMM:  25    -0.869223407446E+02   -0.11263E-05   -0.25742E-08    53   0.104E-03    0.125E-04
RMM:  26    -0.869223422897E+02   -0.15451E-05   -0.25472E-08    47   0.990E-04    0.182E-04
RMM:  27    -0.869223431090E+02   -0.81931E-06   -0.59302E-09    46   0.832E-04
   1 F= -.86922343E+02 E0= -.86922343E+02  d E =-.745867E-11
       N       E                     dE             d eps       ncg     rms          rms(c)
DAV:   1    -0.869264142609E+02   -0.40720E-02   -0.18001E-03    88   0.204E-01    0.430E-02
RMM:   2    -0.869263529979E+02    0.61263E-04   -0.12705E-04    83   0.488E-02    0.252E-02
RMM:   3    -0.869263258250E+02    0.27173E-04   -0.11396E-04    89   0.334E-02    0.460E-03
RMM:   4    -0.869263259066E+02   -0.81568E-07   -0.13369E-06    74   0.454E-03
   2 F= -.86926326E+02 E0= -.86926326E+02  d E =-.218224E-10
       N       E                     dE             d eps       ncg     rms          rms(c)
DAV:   1    -0.869327397398E+02   -0.64139E-02   -0.47814E-03    88   0.333E-01    0.711E-02
RMM:   2    -0.869325673210E+02    0.17242E-03   -0.34263E-04    82   0.799E-02    0.415E-02
RMM:   3    -0.869324941251E+02    0.73196E-04   -0.31214E-04    92   0.551E-02    0.764E-03
RMM:   4    -0.869324952592E+02   -0.11341E-05   -0.38885E-06    77   0.759E-03    0.403E-03
RMM:   5    -0.869324990983E+02   -0.38391E-05   -0.21561E-06    60   0.551E-03    0.277E-03
RMM:   6    -0.869324994716E+02   -0.37328E-06   -0.10994E-06    71   0.363E-03
   3 F= -.86932499E+02 E0= -.86932499E+02  d E =-.339134E-10
       N       E                     dE             d eps       ncg     rms          rms(c)
DAV:   1    -0.871090801427E+02   -0.17658E+00   -0.15226E+00    80   0.595E+00    0.125E+00
RMM:   2    -0.870575303379E+02    0.51550E-01   -0.10736E-01    82   0.147E+00    0.732E-01
RMM:   3    -0.870367158973E+02    0.20814E-01   -0.96837E-02    93   0.979E-01    0.133E-01
RMM:   4    -0.870367163589E+02   -0.46160E-06   -0.12315E-03    95   0.134E-01    0.702E-02
RMM:   5    -0.870371445526E+02   -0.42819E-03   -0.55944E-04    85   0.827E-02    0.440E-02
RMM:   6    -0.870370903695E+02    0.54183E-04   -0.30860E-04    95   0.569E-02    0.996E-03
RMM:   7    -0.870372804869E+02   -0.19012E-03   -0.38174E-05    76   0.198E-02    0.934E-03
RMM:   8    -0.870374172742E+02   -0.13679E-03   -0.31666E-05    72   0.148E-02    0.485E-03
RMM:   9    -0.870375211589E+02   -0.10388E-03   -0.30779E-05    77   0.141E-02    0.321E-03
RMM:  10    -0.870375780109E+02   -0.56852E-04   -0.96105E-06    81   0.762E-03    0.205E-03
RMM:  11    -0.870376010702E+02   -0.23059E-04   -0.43894E-06    81   0.663E-03    0.219E-03
RMM:  12    -0.870376105004E+02   -0.94302E-05   -0.75814E-07    70   0.320E-03    0.715E-04
RMM:  13    -0.870376232471E+02   -0.12747E-04   -0.86359E-07    64   0.306E-03    0.534E-04
RMM:  14    -0.870376264270E+02   -0.31798E-05   -0.23161E-07    61   0.153E-03    0.237E-04
RMM:  15    -0.870376310337E+02   -0.46067E-05   -0.20782E-07    62   0.165E-03    0.421E-04
RMM:  16    -0.870376318493E+02   -0.81558E-06   -0.49264E-08    55   0.102E-03
   4 F= -.87037632E+02 E0= -.87037632E+02  d E =-.119442E-10
       N       E                     dE             d eps       ncg     rms          rms(c)
DAV:   1    -0.873699296543E+02   -0.33230E+00   -0.40201E+00    80   0.973E+00    0.203E+00
RMM:   2    -0.872352748228E+02    0.13465E+00   -0.28542E-01    82   0.249E+00    0.119E+00
RMM:   3    -0.871809807379E+02    0.54294E-01   -0.26079E-01    95   0.162E+00    0.219E-01
RMM:   4    -0.871808188093E+02    0.16193E-03   -0.34804E-03    95   0.228E-01    0.114E-01
RMM:   5    -0.871816739211E+02   -0.85511E-03   -0.13625E-03    86   0.131E-01    0.662E-02
RMM:   6    -0.871815881965E+02    0.85725E-04   -0.79587E-04    94   0.933E-02    0.193E-02
RMM:   7    -0.871819550946E+02   -0.36690E-03   -0.10602E-04    84   0.353E-02    0.155E-02
RMM:   8    -0.871822343759E+02   -0.27928E-03   -0.88995E-05    77   0.253E-02    0.830E-03
RMM:   9    -0.871824305853E+02   -0.19621E-03   -0.81064E-05    80   0.243E-02    0.634E-03
RMM:  10    -0.871825255991E+02   -0.95014E-04   -0.18473E-05    85   0.111E-02    0.352E-03
RMM:  11    -0.871825719011E+02   -0.46302E-04   -0.13149E-05    84   0.118E-02    0.459E-03
RMM:  12    -0.871825895797E+02   -0.17679E-04   -0.20787E-06    75   0.537E-03    0.158E-03
RMM:  13    -0.871826149041E+02   -0.25324E-04   -0.24934E-06    72   0.524E-03    0.118E-03
RMM:  14    -0.871826200345E+02   -0.51304E-05   -0.31748E-07    66   0.203E-03    0.543E-04
RMM:  15    -0.871826281249E+02   -0.80904E-05   -0.36276E-07    66   0.213E-03    0.436E-04
RMM:  16    -0.871826303002E+02   -0.21753E-05   -0.85628E-08    57   0.103E-03    0.190E-04
RMM:  17    -0.871826326203E+02   -0.23201E-05   -0.81558E-08    58   0.119E-03    0.215E-04
RMM:  18    -0.871826333666E+02   -0.74632E-06   -0.58238E-09    47   0.780E-04
   5 F= -.87182633E+02 E0= -.87182633E+02  d E =-.826596E-11
       N       E                     dE             d eps       ncg     rms          rms(c)
DAV:   1    -0.906070675463E+02   -0.34244E+01   -0.71483E+01    76   0.418E+01    0.853E+00
RMM:   2    -0.882893503757E+02    0.23177E+01   -0.53578E+00    89   0.946E+00    0.506E+00
RMM:   3    -0.873476488067E+02    0.94170E+00   -0.49287E+00    96   0.713E+00    0.108E+00
RMM:   4    -0.873267647101E+02    0.20884E-01   -0.95540E-02    96   0.115E+00    0.524E-01
RMM:   5    -0.873345132370E+02   -0.77485E-02   -0.47936E-02    90   0.740E-01    0.352E-01
RMM:   6    -0.873318220512E+02    0.26912E-02   -0.22960E-02    94   0.504E-01    0.145E-01
RMM:   7    -0.873338849092E+02   -0.20629E-02   -0.27001E-03    86   0.192E-01    0.518E-02
RMM:   8    -0.873355329893E+02   -0.16481E-02   -0.24054E-03    84   0.167E-01    0.979E-02
RMM:   9    -0.873366153061E+02   -0.10823E-02   -0.33382E-03    79   0.176E-01    0.421E-02
RMM:  10    -0.873370919765E+02   -0.47667E-03   -0.23476E-04    96   0.437E-02    0.392E-02
RMM:  11    -0.873373880151E+02   -0.29604E-03   -0.33820E-04    91   0.587E-02    0.948E-03
RMM:  12    -0.873376226437E+02   -0.23463E-03   -0.23100E-05    90   0.174E-02    0.337E-03
RMM:  13    -0.873377689294E+02   -0.14629E-03   -0.15166E-05    83   0.106E-02    0.491E-03
RMM:  14    -0.873378689266E+02   -0.99997E-04   -0.55850E-06    83   0.712E-03    0.251E-03
RMM:  15    -0.873379096058E+02   -0.40679E-04   -0.45496E-06    81   0.713E-03    0.290E-03
RMM:  16    -0.873379416850E+02   -0.32079E-04   -0.15637E-06    70   0.422E-03    0.115E-03
RMM:  17    -0.873379549969E+02   -0.13312E-04   -0.51622E-07    67   0.244E-03    0.505E-04
RMM:  18    -0.873379618882E+02   -0.68913E-05   -0.30408E-07    62   0.180E-03    0.260E-04
RMM:  19    -0.873379659800E+02   -0.40918E-05   -0.11810E-07    53   0.129E-03    0.246E-04
RMM:  20    -0.873379678989E+02   -0.19189E-05   -0.50446E-08    50   0.105E-03    0.110E-04
RMM:  21    -0.873379685303E+02   -0.63146E-06   -0.32990E-09    47   0.853E-04
   6 F= -.87337969E+02 E0= -.87337969E+02  d E =-.770359E-12
       N       E                     dE             d eps       ncg     rms          rms(c)
DAV:   1    -0.927577641450E+02   -0.54198E+01   -0.19199E+02    76   0.707E+01    0.140E+01
RMM:   2    -0.868954927767E+02    0.58623E+01   -0.17320E+01    93   0.166E+01    0.870E+00
RMM:   3    -0.843667404153E+02    0.25288E+01   -0.14998E+01    96   0.119E+01    0.242E+00
RMM:   4    -0.842140465752E+02    0.15269E+00   -0.44849E-01    96   0.234E+00    0.105E+00
RMM:   5    -0.842352533239E+02   -0.21207E-01   -0.35489E-01    92   0.181E+00    0.855E-01
RMM:   6    -0.842142675342E+02    0.20986E-01   -0.11047E-01    95   0.105E+00    0.256E-01
RMM:   7    -0.842180797108E+02   -0.38122E-02   -0.96317E-03    86   0.322E-01    0.143E-01
RMM:   8    -0.842195708043E+02   -0.14911E-02   -0.11605E-02    88   0.358E-01    0.170E-01
RMM:   9    -0.842213053232E+02   -0.17345E-02   -0.72043E-03    81   0.249E-01    0.415E-02
RMM:  10    -0.842220896945E+02   -0.78437E-03   -0.13485E-03   104   0.913E-02    0.799E-02
RMM:  11    -0.842226215054E+02   -0.53181E-03   -0.15639E-03    88   0.120E-01    0.272E-02
RMM:  12    -0.842232383739E+02   -0.61687E-03   -0.14686E-04    86   0.352E-02    0.272E-02
RMM:  13    -0.842235701569E+02   -0.33178E-03   -0.11880E-04    91   0.363E-02    0.652E-03
RMM:  14    -0.842237351684E+02   -0.16501E-03   -0.18385E-05    87   0.128E-02    0.290E-03
RMM:  15    -0.842238660962E+02   -0.13093E-03   -0.64630E-06    84   0.753E-03    0.455E-03
RMM:  16    -0.842239595055E+02   -0.93409E-04   -0.35956E-06    75   0.546E-03    0.322E-03
RMM:  17    -0.842239947230E+02   -0.35218E-04   -0.36856E-06    78   0.613E-03    0.101E-03
RMM:  18    -0.842240151562E+02   -0.20433E-04   -0.50166E-07    64   0.246E-03    0.856E-04
RMM:  19    -0.842240260003E+02   -0.10844E-04   -0.28958E-07    57   0.186E-03    0.418E-04
RMM:  20    -0.842240301987E+02   -0.41984E-05   -0.15891E-07    64   0.147E-03    0.216E-04
RMM:  21    -0.842240318646E+02   -0.16659E-05   -0.29575E-08    48   0.881E-04    0.124E-04
RMM:  22    -0.842240335414E+02   -0.16767E-05   -0.47343E-08    48   0.108E-03    0.157E-04
RMM:  23    -0.842240337203E+02   -0.17893E-06    0.00000E+00    46   0.735E-04
   7 F= -.84224034E+02 E0= -.84224034E+02  d E =-.422784E-11
       N       E                     dE             d eps       ncg     rms          rms(c)
DAV:   1    -0.102571449476E+03   -0.18347E+02   -0.33934E+02    84   0.855E+01    0.184E+01
RMM:   2    -0.918099130609E+02    0.10762E+02   -0.20558E+01    95   0.194E+01    0.106E+01
RMM:   3    -0.874080680846E+02    0.44018E+01   -0.20607E+01    96   0.138E+01    0.173E+00
RMM:   4    -0.873543828011E+02    0.53685E-01   -0.31908E-01    96   0.206E+00    0.108E+00
RMM:   5    -0.873677721044E+02   -0.13389E-01   -0.17176E-01    96   0.150E+00    0.714E-01
RMM:   6    -0.873456442238E+02    0.22128E-01   -0.71209E-02    96   0.924E-01    0.131E-01
RMM:   7    -0.873487124640E+02   -0.30682E-02   -0.52968E-03    98   0.230E-01    0.864E-02
RMM:   8    -0.873542957112E+02   -0.55832E-02   -0.34925E-03    94   0.198E-01    0.899E-02
RMM:   9    -0.873582264961E+02   -0.39308E-02   -0.30542E-03    93   0.160E-01    0.351E-02
RMM:  10    -0.873621020760E+02   -0.38756E-02   -0.12403E-03    95   0.101E-01    0.502E-02
RMM:  11    -0.873633290974E+02   -0.12270E-02   -0.57310E-04    95   0.869E-02    0.160E-02
RMM:  12    -0.873648200160E+02   -0.14909E-02   -0.13029E-04    90   0.337E-02    0.115E-02
RMM:  13    -0.873654362895E+02   -0.61627E-03   -0.61062E-05    90   0.211E-02    0.433E-03
RMM:  14    -0.873658622700E+02   -0.42598E-03   -0.24606E-05    83   0.137E-02    0.210E-03
RMM:  15    -0.873659885671E+02   -0.12630E-03   -0.58607E-06    84   0.608E-03    0.139E-03
RMM:  16    -0.873660789291E+02   -0.90362E-04   -0.25226E-06    74   0.431E-03    0.114E-03
RMM:  17    -0.873661251337E+02   -0.46205E-04   -0.13051E-06    66   0.354E-03    0.462E-04
RMM:  18    -0.873661357800E+02   -0.10646E-04   -0.39309E-07    64   0.199E-03    0.264E-04
RMM:  19    -0.873661430715E+02   -0.72916E-05   -0.22144E-07    57   0.163E-03    0.210E-04
RMM:  20    -0.873661448322E+02   -0.17606E-05   -0.77389E-08    52   0.107E-03    0.151E-04
RMM:  21    -0.873661468829E+02   -0.20507E-05   -0.32382E-08    47   0.986E-04    0.139E-04
RMM:  22    -0.873661475626E+02   -0.67977E-06   -0.96567E-09    48   0.847E-04
   8 F= -.87366148E+02 E0= -.87366148E+02  d E =-.320014E-11
       N       E                     dE             d eps       ncg     rms          rms(c)
DAV:   1    -0.875876627129E+02   -0.22152E+00   -0.44967E+00    80   0.108E+01    0.212E+00
RMM:   2    -0.874424881098E+02    0.14517E+00   -0.34026E-01    88   0.258E+00    0.127E+00
RMM:   3    -0.873818545894E+02    0.60634E-01   -0.31321E-01    96   0.178E+00    0.251E-01
RMM:   4    -0.873813414152E+02    0.51317E-03   -0.49798E-03    96   0.272E-01    0.124E-01
RMM:   5    -0.873821875144E+02   -0.84610E-03   -0.16252E-03    88   0.140E-01    0.743E-02
RMM:   6    -0.873822250459E+02   -0.37531E-04   -0.11186E-03    93   0.112E-01    0.333E-02
RMM:   7    -0.873826145112E+02   -0.38947E-03   -0.21101E-04    85   0.517E-02    0.175E-02
RMM:   8    -0.873829262497E+02   -0.31174E-03   -0.11516E-04    83   0.331E-02    0.182E-02
RMM:   9    -0.873831537993E+02   -0.22755E-03   -0.17572E-04    82   0.391E-02    0.103E-02
RMM:  10    -0.873832549508E+02   -0.10115E-03   -0.23000E-05    83   0.130E-02    0.828E-03
RMM:  11    -0.873832919484E+02   -0.36998E-04   -0.18340E-05    90   0.139E-02    0.279E-03
RMM:  12    -0.873833353624E+02   -0.43414E-04   -0.31804E-06    75   0.537E-03    0.168E-03
RMM:  13    -0.873833488421E+02   -0.13480E-04   -0.74266E-07    69   0.275E-03    0.106E-03
RMM:  14    -0.873833617990E+02   -0.12957E-04   -0.77319E-07    69   0.293E-03    0.438E-04
RMM:  15    -0.873833666128E+02   -0.48138E-05   -0.22990E-07    63   0.160E-03    0.466E-04
RMM:  16    -0.873833696991E+02   -0.30863E-05   -0.11867E-07    59   0.126E-03    0.245E-04
RMM:  17    -0.873833717136E+02   -0.20145E-05   -0.66138E-08    57   0.115E-03    0.183E-04
RMM:  18    -0.873833726810E+02   -0.96741E-06   -0.15531E-08    49   0.862E-04
   9 F= -.87383373E+02 E0= -.87383373E+02  d E =-.149222E-11
       N       E                     dE             d eps       ncg     rms          rms(c)
DAV:   1    -0.874329860187E+02   -0.49614E-01   -0.11295E+00    88   0.533E+00    0.106E+00
RMM:   2    -0.873967302494E+02    0.36256E-01   -0.84841E-02    83   0.130E+00    0.634E-01
RMM:   3    -0.873813767137E+02    0.15354E-01   -0.78285E-02    95   0.902E-01    0.121E-01
RMM:   4    -0.873812139448E+02    0.16277E-03   -0.11355E-03    95   0.133E-01    0.619E-02
RMM:   5    -0.873813754446E+02   -0.16150E-03   -0.34741E-04    92   0.662E-02    0.353E-02
RMM:   6    -0.873813816250E+02   -0.61804E-05   -0.25845E-04    93   0.541E-02    0.148E-02
RMM:   7    -0.873815028363E+02   -0.12121E-03   -0.41304E-05    89   0.233E-02    0.932E-03
RMM:   8    -0.873816340797E+02   -0.13124E-03   -0.22645E-05    85   0.143E-02    0.800E-03
RMM:   9    -0.873817398955E+02   -0.10582E-03   -0.35868E-05    87   0.176E-02    0.488E-03
RMM:  10    -0.873818073038E+02   -0.67408E-04   -0.61881E-06    81   0.659E-03    0.373E-03
RMM:  11    -0.873818341101E+02   -0.26806E-04   -0.48585E-06    81   0.735E-03    0.172E-03
RMM:  12    -0.873818619040E+02   -0.27794E-04   -0.10587E-06    65   0.357E-03    0.658E-04
RMM:  13    -0.873818704466E+02   -0.85426E-05   -0.43493E-07    64   0.199E-03    0.661E-04
RMM:  14    -0.873818790796E+02   -0.86330E-05   -0.31238E-07    66   0.181E-03    0.236E-04
RMM:  15    -0.873818812012E+02   -0.21216E-05   -0.14332E-07    62   0.134E-03    0.221E-04
RMM:  16    -0.873818847239E+02   -0.35227E-05   -0.78125E-08    51   0.114E-03    0.191E-04
RMM:  17    -0.873818856048E+02   -0.88087E-06   -0.14998E-08    48   0.883E-04
  10 F= -.87381886E+02 E0= -.87381886E+02  d E =-.229931E-11
       N       E                     dE             d eps       ncg     rms          rms(c)
DAV:   1    -0.873972458383E+02   -0.15361E-01   -0.28147E-01    88   0.269E+00    0.530E-01
RMM:   2    -0.873881389251E+02    0.91069E-02   -0.21304E-02    85   0.648E-01    0.318E-01
RMM:   3    -0.873842338183E+02    0.39051E-02   -0.19614E-02    94   0.448E-01    0.619E-02
RMM:   4    -0.873842268976E+02    0.69206E-05   -0.29945E-04    95   0.672E-02    0.312E-02
RMM:   5    -0.873843103445E+02   -0.83447E-04   -0.97270E-05    86   0.344E-02    0.183E-02
RMM:   6    -0.873843261548E+02   -0.15810E-04   -0.68719E-05    90   0.277E-02    0.797E-03
RMM:   7    -0.873843798667E+02   -0.53712E-04   -0.13654E-05    79   0.128E-02    0.461E-03
RMM:   8    -0.873844245332E+02   -0.44667E-04   -0.83839E-06    72   0.870E-03    0.441E-03
RMM:   9    -0.873844575794E+02   -0.33046E-04   -0.12030E-05    77   0.992E-03    0.251E-03
RMM:  10    -0.873844731987E+02   -0.15619E-04   -0.18569E-06    68   0.400E-03    0.190E-03
RMM:  11    -0.873844800609E+02   -0.68622E-05   -0.15996E-06    73   0.400E-03    0.597E-04
RMM:  12    -0.873844864035E+02   -0.63426E-05   -0.49291E-07    62   0.219E-03    0.355E-04
RMM:  13    -0.873844885433E+02   -0.21398E-05   -0.24429E-07    63   0.159E-03    0.411E-04
RMM:  14    -0.873844903121E+02   -0.17688E-05   -0.93368E-08    58   0.119E-03    0.171E-04
RMM:  15    -0.873844911359E+02   -0.82382E-06   -0.34946E-08    54   0.106E-03
  11 F= -.87384491E+02 E0= -.87384491E+02  d E =-.186951E-11
       N       E                     dE             d eps       ncg     rms          rms(c)
DAV:   1    -0.873876063185E+02   -0.31160E-02   -0.70555E-02    88   0.134E+00    0.265E-01
RMM:   2    -0.873853120431E+02    0.22943E-02   -0.53244E-03    81   0.324E-01    0.159E-01
RMM:   3    -0.873843205525E+02    0.99149E-03   -0.49044E-03    94   0.224E-01    0.308E-02
RMM:   4    -0.873843205459E+02    0.66202E-08   -0.74252E-05    96   0.335E-02    0.155E-02
RMM:   5    -0.873843429371E+02   -0.22391E-04   -0.22852E-05    80   0.167E-02    0.894E-03
RMM:   6    -0.873843486186E+02   -0.56816E-05   -0.16567E-05    82   0.136E-02    0.393E-03
RMM:   7    -0.873843659899E+02   -0.17371E-04   -0.34272E-06    68   0.645E-03    0.230E-03
RMM:   8    -0.873843819899E+02   -0.16000E-04   -0.21432E-06    61   0.449E-03    0.216E-03
RMM:   9    -0.873843943432E+02   -0.12353E-04   -0.29939E-06    69   0.467E-03    0.879E-04
RMM:  10    -0.873844006150E+02   -0.62719E-05   -0.63892E-07    60   0.235E-03    0.881E-04
RMM:  11    -0.873844036938E+02   -0.30787E-05   -0.45721E-07    62   0.205E-03    0.290E-04
RMM:  12    -0.873844064240E+02   -0.27303E-05   -0.25397E-07    62   0.169E-03    0.345E-04
RMM:  13    -0.873844073796E+02   -0.95557E-06   -0.90440E-08    56   0.105E-03
  12 F= -.87384407E+02 E0= -.87384407E+02  d E =-.186648E-11
       N       E                     dE             d eps       ncg     rms          rms(c)
DAV:   1    -0.873853663541E+02   -0.95993E-03   -0.17646E-02    88   0.667E-01    0.133E-01
RMM:   2    -0.873847935899E+02    0.57276E-03   -0.13300E-03    83   0.164E-01    0.793E-02
RMM:   3    -0.873845465658E+02    0.24702E-03   -0.12242E-03    93   0.112E-01    0.153E-02
RMM:   4    -0.873845447274E+02    0.18385E-05   -0.18266E-05    85   0.168E-02    0.774E-03
