 vasp.5.4.4.18Apr17-6-g9f103f2a35 (build Sep 04 2019 18:34:39) complex          
  
 executed on             LinuxIFC date 2012.06.17  18:27:56
 running on   48 total cores
 distrk:  each k-point on   48 cores,    1 groups
 distr:  one band on NCORES_PER_BAND=  12 cores,    4 groups


--------------------------------------------------------------------------------------------------------


 INCAR:
 POTCAR:    PAW_PBE H 15Jun2001                   
 POTCAR:    PAW_PBE O 08Apr2002                   
 POTCAR:    PAW_PBE H 15Jun2001                   
  local pseudopotential read in
  atomic valenz-charges read in
  non local Contribution for L=           0  read in
    real space projection operators read in
  non local Contribution for L=           0  read in
    real space projection operators read in
  non local Contribution for L=           1  read in
    real space projection operators read in
    PAW grid and wavefunctions read in
 
   number of l-projection  operators is LMAX  =           3
   number of lm-projection operators is LMMAX =           5
 
 POTCAR:    PAW_PBE O 08Apr2002                   
  local pseudopotential read in
  partial core-charges read in
  partial kinetic energy density read in
  kinetic energy density of atom read in
  atomic valenz-charges read in
  non local Contribution for L=           0  read in
    real space projection operators read in
  non local Contribution for L=           0  read in
    real space projection operators read in
  non local Contribution for L=           1  read in
    real space projection operators read in
  non local Contribution for L=           1  read in
    real space projection operators read in
    PAW grid and wavefunctions read in
 
   number of l-projection  operators is LMAX  =           4
   number of lm-projection operators is LMMAX =           8
 

 ----------------------------------------------------------------------------- 
|                                                                             |
|  ADVICE TO THIS USER RUNNING 'VASP/VAMP'   (HEAR YOUR MASTER'S VOICE ...):  |
|                                                                             |
|      You have a (more or less) 'large supercell' and for larger cells       |
|      it might be more efficient to use real space projection opertators     |
|      So try LREAL= Auto  in the INCAR   file.                               |
|      Mind:          For very  accurate calculation you might also keep the  |
|      reciprocal projection scheme          (i.e. LREAL=.FALSE.)             |
|                                                                             |
 ----------------------------------------------------------------------------- 

  PAW_PBE H 15Jun2001                   :
 energy of atom  1       EATOM=  -12.4884
 kinetic energy error for atom=    0.0098 (will be added to EATOM!!)
  PAW_PBE O 08Apr2002                   :
 energy of atom  2       EATOM= -432.3788
 kinetic energy error for atom=    0.1156 (will be added to EATOM!!)
 
 
 POSCAR:  H  O                                   
  positions in cartesian coordinates
  No initial velocities read in
 exchange correlation table for  LEXCH =        8
   RHO(1)=    0.500       N(1)  =     2000
   RHO(2)=  100.500       N(2)  =     4000
 


--------------------------------------------------------------------------------------------------------


 ion  position               nearest neighbor table
   1  0.517  0.482  0.425-  13 0.97
   2  0.583  0.517  0.443-  13 0.98
   3  0.510  0.514  0.576-  14 0.97
   4  0.509  0.443  0.552-  14 0.97
   5  0.611  0.489  0.543-  15 0.98
   6  0.682  0.476  0.515-  15 0.96
   7  0.418  0.438  0.478-  16 0.98
   8  0.448  0.371  0.453-  16 0.96
   9  0.320  0.498  0.538-  17 1.13
  10  0.391  0.538  0.506-  17 0.98
  11  0.495  0.570  0.478-  18 0.99
  12  0.470  0.633  0.516-  18 0.96
  13  0.539  0.525  0.421-   1 0.97   2 0.98
  14  0.531  0.472  0.583-   3 0.97   4 0.97
  15  0.644  0.504  0.510-   6 0.96   5 0.98
  16  0.460  0.414  0.470-   8 0.96   7 0.98
  17  0.360  0.501  0.498-  10 0.98   9 1.13
  18  0.467  0.585  0.516-  12 0.96  11 0.99
 
  LATTYP: Found a simple cubic cell.
 ALAT       =    20.0000000000
  
  Lattice vectors:
  
 A1 = (  20.0000000000,   0.0000000000,   0.0000000000)
 A2 = (   0.0000000000,  20.0000000000,   0.0000000000)
 A3 = (   0.0000000000,   0.0000000000,  20.0000000000)


Analysis of symmetry for initial positions (statically):
=====================================================================
 Subroutine PRICEL returns:
 Original cell was already a primitive cell.
 

 Routine SETGRP: Setting up the symmetry group for a 
 simple cubic supercell.


 Subroutine GETGRP returns: Found  1 space group operations
 (whereof  1 operations were pure point group operations)
 out of a pool of 48 trial point group operations.


The static configuration has the point symmetry C_1 .


Analysis of symmetry for dynamics (positions and initial velocities):
=====================================================================
 Subroutine PRICEL returns:
 Original cell was already a primitive cell.
 

 Routine SETGRP: Setting up the symmetry group for a 
 simple cubic supercell.


 Subroutine GETGRP returns: Found  1 space group operations
 (whereof  1 operations were pure point group operations)
 out of a pool of 48 trial point group operations.


The dynamic configuration has the point symmetry C_1 .


 Subroutine INISYM returns: Found  1 space group operations
 (whereof  1 operations are pure point group operations),
 and found     1 'primitive' translations

 
 
 KPOINTS: Monkhorst-Pack                          

Automatic generation of k-mesh.
Space group operators:
 irot       det(A)        alpha          n_x          n_y          n_z        tau_x        tau_y        tau_z
    1     1.000000     0.000000     1.000000     0.000000     0.000000     0.000000     0.000000     0.000000
 
 Subroutine IBZKPT returns following result:
 ===========================================
 
 Found      1 irreducible k-points:
 
 Following reciprocal coordinates:
            Coordinates               Weight
  0.000000  0.000000  0.000000      1.000000
 
 Following cartesian coordinates:
            Coordinates               Weight
  0.000000  0.000000  0.000000      1.000000
 


--------------------------------------------------------------------------------------------------------




 Dimension of arrays:
   k-points           NKPTS =      1   k-points in BZ     NKDIM =      1   number of bands    NBANDS=     36
   number of dos      NEDOS =    301   number of ions     NIONS =     18
   non local maximal  LDIM  =      4   non local SUM 2l+1 LMDIM =      8
   total plane-waves  NPLWV = 941192
   max r-space proj   IRMAX =      1   max aug-charges    IRDMAX=   1030
   dimension x,y,z NGX =    98 NGY =   98 NGZ =   98
   dimension x,y,z NGXF=   160 NGYF=  160 NGZF=  160
   support grid    NGXF=   160 NGYF=  160 NGZF=  160
   ions per type =              12   6
   NGX,Y,Z   is equivalent  to a cutoff of   8.15,  8.15,  8.15 a.u.
   NGXF,Y,Z  is equivalent  to a cutoff of  13.30, 13.30, 13.30 a.u.

 SYSTEM =  VaspCalc                                
 POSCAR =   H  O                                   

 Startparameter for this run:
   NWRITE =      1    write-flag & timer
   PREC   = med       normal or accurate (medium, high low for compatibility)
   ISTART =      0    job   : 0-new  1-cont  2-samecut
   ICHARG =      2    charge: 1-file 2-atom 10-const
   ISPIN  =      1    spin polarized calculation?
   LNONCOLLINEAR =      F non collinear calculations
   LSORBIT =      F    spin-orbit coupling
   INIWAV =      1    electr: 0-lowe 1-rand  2-diag
   LASPH  =      F    aspherical Exc in radial PAW
   METAGGA=      F    non-selfconsistent MetaGGA calc.

 Electronic Relaxation 1
   ENCUT  =  400.0 eV  29.40 Ry    5.42 a.u.  32.61 32.61 32.61*2*pi/ulx,y,z
   ENINI  =  400.0     initial cutoff
   ENAUG  =  605.4 eV  augmentation charge cutoff
   NELM   =    400;   NELMIN=  4; NELMDL=  0     # of ELM steps 
   EDIFF  = 0.1E-05   stopping-criterion for ELM
   LREAL  =      F    real-space projection
   NLSPLINE    = F    spline interpolate recip. space projectors
   LCOMPAT=      F    compatible to vasp.4.4
   GGA_COMPAT  = T    GGA compatible to vasp.4.4-vasp.4.6
   LMAXPAW     = -100 max onsite density
   LMAXMIX     =    2 max onsite mixed and CHGCAR
   VOSKOWN=      0    Vosko Wilk Nusair interpolation
   ROPT   =    0.00000   0.00000
 Ionic relaxation
   EDIFFG = 0.1E-04   stopping-criterion for IOM
   NSW    =    400    number of steps for IOM
   NBLOCK =      1;   KBLOCK =    400    inner block; outer block 
   IBRION =     -1    ionic relax: 0-MD 1-quasi-New 2-CG
   NFREE  =      0    steps in history (QN), initial steepest desc. (CG)
   ISIF   =      2    stress and relaxation
   IWAVPR =     10    prediction:  0-non 1-charg 2-wave 3-comb
   ISYM   =      2    0-nonsym 1-usesym 2-fastsym
   LCORR  =      T    Harris-Foulkes like correction to forces

   POTIM  = 0.5000    time-step for ionic-motion
   TEIN   =    0.0    initial temperature
   TEBEG  =    0.0;   TEEND  =   0.0 temperature during run
   SMASS  =  -3.00    Nose mass-parameter (am)
   estimated Nose-frequenzy (Omega)   =  0.10E-29 period in steps =****** mass=  -0.914E-26a.u.
   SCALEE = 1.0000    scale energy and forces
   NPACO  =    256;   APACO  = 16.0  distance and # of slots for P.C.
   PSTRESS=    0.0 pullay stress

  Mass of Ions in am
   POMASS =   1.00 16.00
  Ionic Valenz
   ZVAL   =   1.00  6.00
  Atomic Wigner-Seitz radii
   RWIGS  =  -1.00 -1.00
  virtual crystal weights 
   VCA    =   1.00  1.00
   NELECT =      48.0000    total number of electrons
   NUPDOWN=      -1.0000    fix difference up-down

 DOS related values:
   EMIN   =  10.00;   EMAX   =-10.00  energy-range for DOS
   EFERMI =   0.00
   ISMEAR =     0;   SIGMA  =   0.10  broadening in eV -4-tet -1-fermi 0-gaus

 Electronic relaxation 2 (details)
   IALGO  =     68    algorithm
   LDIAG  =      T    sub-space diagonalisation (order eigenvalues)
   LSUBROT=      F    optimize rotation matrix (better conditioning)
   TURBO    =      0    0=normal 1=particle mesh
   IRESTART =      0    0=no restart 2=restart with 2 vectors
   NREBOOT  =      0    no. of reboots
   NMIN     =      0    reboot dimension
   EREF     =   0.00    reference energy to select bands
   IMIX   =      4    mixing-type and parameters
     AMIX     =   0.40;   BMIX     =  1.00
     AMIX_MAG =   1.60;   BMIX_MAG =  1.00
     AMIN     =   0.10
     WC   =   100.;   INIMIX=   1;  MIXPRE=   1;  MAXMIX= -45

 Intra band minimization:
   WEIMIN = 0.0000     energy-eigenvalue tresh-hold
   EBREAK =  0.69E-08  absolut break condition
   DEPER  =   0.30     relativ break condition  

   TIME   =   0.40     timestep for ELM

  volume/ion in A,a.u.               =     444.44      2999.26
  Fermi-wavevector in a.u.,A,eV,Ry     =   0.297481  0.562157  1.204043  0.088495
  Thomas-Fermi vector in A             =   1.163009
 
 Write flags
   LWAVE        =      F    write WAVECAR
   LDOWNSAMPLE  =      F    k-point downsampling of WAVECAR
   LCHARG       =      F    write CHGCAR
   LVTOT        =      F    write LOCPOT, total local potential
   LVHAR        =      F    write LOCPOT, Hartree potential only
   LELF         =      F    write electronic localiz. function (ELF)
   LORBIT       =     11    0 simple, 1 ext, 2 COOP (PROOUT), +10 PAW based schemes


 Dipole corrections
   LMONO  =      F    monopole corrections only (constant potential shift)
   LDIPOL =      T    correct potential (dipole corrections)
   IDIPOL =      4    1-x, 2-y, 3-z, 4-all directions 
   EPSILON=  1.0000000 bulk dielectric constant

 Exchange correlation treatment:
   GGA     =    --    GGA type
   LEXCH   =     8    internal setting for exchange type
   VOSKOWN=      0    Vosko Wilk Nusair interpolation
   LHFCALC =     F    Hartree Fock is set to
   LHFONE  =     F    Hartree Fock one center treatment
   AEXX    =    0.0000 exact exchange contribution

 Linear response parameters
   LEPSILON=     F    determine dielectric tensor
   LRPA    =     F    only Hartree local field effects (RPA)
   LNABLA  =     F    use nabla operator in PAW spheres
   LVEL    =     F    velocity operator in full k-point grid
   LINTERFAST=   F  fast interpolation
   KINTER  =     0    interpolate to denser k-point grid
   CSHIFT  =0.1000    complex shift for real part using Kramers Kronig
   OMEGAMAX=  -1.0    maximum frequency
   DEG_THRESHOLD= 0.2000000E-02 threshold for treating states as degnerate
   RTIME   =   -0.100 relaxation time in fs
  (WPLASMAI=    0.000 imaginary part of plasma frequency in eV, 0.658/RTIME)
   DFIELD  = 0.0000000 0.0000000 0.0000000 field for delta impulse in time
 
 Orbital magnetization related:
   ORBITALMAG=     F  switch on orbital magnetization
   LCHIMAG   =     F  perturbation theory with respect to B field
   DQ        =  0.001000  dq finite difference perturbation B field
   LLRAUG    =     F  two centre corrections for induced B field



--------------------------------------------------------------------------------------------------------


 Static calculation
 charge density and potential will be updated during run
 non-spin polarized calculation
 RMM-DIIS sequential band-by-band and
  variant of blocked Davidson during initial phase
 perform sub-space diagonalisation
    before iterative eigenvector-optimisation
 modified Broyden-mixing scheme, WC =      100.0
 initial mixing is a Kerker type mixing with AMIX =  0.4000 and BMIX =      1.0000
 Hartree-type preconditioning will be used
 using additional bands           12
 reciprocal scheme for non local part
 use partial core corrections
 calculate Harris-corrections to forces 
   (improved forces if not selfconsistent)
 use gradient corrections 
 use of overlap-Matrix (Vanderbilt PP)
 Gauss-broadening in eV      SIGMA  =   0.10


--------------------------------------------------------------------------------------------------------


  energy-cutoff  :      400.00
  volume of cell :     8000.00
      direct lattice vectors                 reciprocal lattice vectors
    20.000000000  0.000000000  0.000000000     0.050000000  0.000000000  0.000000000
     0.000000000 20.000000000  0.000000000     0.000000000  0.050000000  0.000000000
     0.000000000  0.000000000 20.000000000     0.000000000  0.000000000  0.050000000

  length of vectors
    20.000000000 20.000000000 20.000000000     0.050000000  0.050000000  0.050000000


 
 k-points in units of 2pi/SCALE and weight: Monkhorst-Pack                          
   0.00000000  0.00000000  0.00000000       1.000
 
 k-points in reciprocal lattice and weights: Monkhorst-Pack                          
   0.00000000  0.00000000  0.00000000       1.000
 
 position of ions in fractional coordinates (direct lattice) 
   0.51696044  0.48231771  0.42450384
   0.58250409  0.51749296  0.44267829
   0.50958844  0.51448731  0.57599144
   0.50881759  0.44253796  0.55194014
   0.61067104  0.48867021  0.54297044
   0.68202664  0.47599011  0.51539879
   0.41832169  0.43807436  0.47809879
   0.44818364  0.37077486  0.45331244
   0.32000000  0.49750456  0.53770659
   0.39097829  0.53815556  0.50631739
   0.49542619  0.56961846  0.47781379
   0.47029514  0.63315261  0.51581875
   0.53931234  0.52526726  0.42129739
   0.53148534  0.47185586  0.58328284
   0.64368714  0.50445581  0.51036774
   0.46046439  0.41406651  0.47018254
   0.36007474  0.50112251  0.49787849
   0.46704339  0.58519926  0.51557024
 
 position of ions in cartesian coordinates  (Angst):
  10.33920878  9.64635415  8.49007673
  11.65008178 10.34985915  8.85356573
  10.19176878 10.28974615 11.51982873
  10.17635178  8.85075915 11.03880273
  12.21342078  9.77340415 10.85940873
  13.64053278  9.51980215 10.30797573
   8.36643378  8.76148715  9.56197573
   8.96367278  7.41549715  9.06624873
   6.40000000  9.95009115 10.75413173
   7.81956578 10.76311115 10.12634773
   9.90852378 11.39236915  9.55627573
   9.40590278 12.66305215 10.31637491
  10.78624678 10.50534515  8.42594773
  10.62970678  9.43711715 11.66565673
  12.87374278 10.08911615 10.20735473
   9.20928778  8.28133015  9.40365073
   7.20149478 10.02245015  9.95756973
   9.34086778 11.70398515 10.31140473
 


--------------------------------------------------------------------------------------------------------


 k-point  1 :   0.0000 0.0000 0.0000  plane waves:  145165

 maximum and minimum number of plane-waves per node :     12106    12090

 maximum number of plane-waves:    145165
 maximum index in each direction: 
   IXMAX=   32   IYMAX=   32   IZMAX=   32
   IXMIN=  -32   IYMIN=  -32   IZMIN=  -32


 parallel 3D FFT for wavefunctions:
    minimum data exchange during FFTs selected (reduces bandwidth)
 parallel 3D FFT for charge:
    minimum data exchange during FFTs selected (reduces bandwidth)


 total amount of memory used by VASP MPI-rank0    52198. kBytes
=======================================================================

   base      :      30000. kBytes
   nonl-proj :       5035. kBytes
   fftplans  :       6155. kBytes
   grid      :       9257. kBytes
   one-center:          6. kBytes
   wavefun   :       1745. kBytes
 
     INWAV:  cpu time    0.0000: real time    0.0001
 Broyden mixing: mesh for mixing (old mesh)
   NGX = 65   NGY = 65   NGZ = 65
  (NGX  =160   NGY  =160   NGZ  =160)
  gives a total of 274625 points

 initial charge density was supplied:
 charge density of overlapping atoms calculated
 number of electron      48.0000000 magnetization 
 keeping initial charge density in first step


--------------------------------------------------------------------------------------------------------


 Maximum index for augmentation-charges           43 (set IRDMAX)


--------------------------------------------------------------------------------------------------------


 First call to EWALD:  gamma=   0.089
 Maximum number of real-space cells 3x 3x 3
 Maximum number of reciprocal cells 3x 3x 3

    FEWALD:  cpu time    0.0022: real time    0.0022


--------------------------------------- Iteration      1(   1)  ---------------------------------------


    POTLOK:  cpu time    0.1120: real time    0.1167
    SETDIJ:  cpu time    0.0016: real time    0.0016
     EDDAV:  cpu time    0.5733: real time    0.5735
       DOS:  cpu time    0.0005: real time    0.0005
    --------------------------------------------
      LOOP:  cpu time    0.6874: real time    0.6923

 eigenvalue-minimisations  :    88
 total energy-change (2. order) : 0.5174021E+03  (-0.8583608E+03)
 number of electron      48.0000000 magnetization 
 augmentation part       48.0000000 magnetization 

 DIPCOR: dipole corrections for dipol
 direction  1 min pos     1, direction  2 min pos     1, direction  3 min pos     1,
 dipolmoment           0.000003      0.000001     -0.000001 electrons x Angstroem
 Tr[quadrupol]        26.408037

 energy correction for charged system         0.000000 eV
 dipol+quadrupol energy correction           -0.000000 eV
 added-field ion interaction          0.000000 eV  (added to PSCEN)


 Free energy of the ion-electron system (eV)
  ---------------------------------------------------
  alpha Z        PSCENC =         1.00913064
  Ewald energy   TEWEN  =      3088.91719270
  -Hartree energ DENC   =     -5244.53645835
  -exchange      EXHF   =         0.00000000
  -V(xc)+E(xc)   XCENC  =       195.01756129
  PAW double counting   =      2104.90519057    -2115.80374798
  entropy T*S    EENTRO =        -0.11486492
  eigenvalues    EBANDS =      -255.31467205
  atomic energy  EATOM  =      2743.32276819
  Solvation  Ediel_sol  =         0.00000000
  ---------------------------------------------------
  free energy    TOTEN  =       517.40210010 eV

  energy without entropy =      517.51696502  energy(sigma->0) =      517.45953256


--------------------------------------------------------------------------------------------------------




--------------------------------------- Iteration      1(   2)  ---------------------------------------


     EDDAV:  cpu time    0.7747: real time    0.7752
       DOS:  cpu time    0.0008: real time    0.0008
    --------------------------------------------
      LOOP:  cpu time    0.7755: real time    0.7760

 eigenvalue-minimisations  :   128
 total energy-change (2. order) :-0.2894787E+03  (-0.2752168E+03)
 number of electron      48.0000000 magnetization 
 augmentation part       48.0000000 magnetization 

 DIPCOR: dipole corrections for dipol
 direction  1 min pos     1, direction  2 min pos     1, direction  3 min pos     1,
 dipolmoment           0.000003      0.000001     -0.000001 electrons x Angstroem
 Tr[quadrupol]        26.408037

 energy correction for charged system         0.000000 eV
 dipol+quadrupol energy correction           -0.000000 eV
 added-field ion interaction          0.000000 eV  (added to PSCEN)


 Free energy of the ion-electron system (eV)
  ---------------------------------------------------
  alpha Z        PSCENC =         1.00913064
  Ewald energy   TEWEN  =      3088.91719270
  -Hartree energ DENC   =     -5244.53645835
  -exchange      EXHF   =         0.00000000
  -V(xc)+E(xc)   XCENC  =       195.01756129
  PAW double counting   =      2104.90519057    -2115.80374798
  entropy T*S    EENTRO =        -0.01425526
  eigenvalues    EBANDS =      -544.89395628
  atomic energy  EATOM  =      2743.32276819
  Solvation  Ediel_sol  =         0.00000000
  ---------------------------------------------------
  free energy    TOTEN  =       227.92342553 eV

  energy without entropy =      227.93768079  energy(sigma->0) =      227.93055316


--------------------------------------------------------------------------------------------------------




--------------------------------------- Iteration      1(   3)  ---------------------------------------


     EDDAV:  cpu time    0.7292: real time    0.7298
       DOS:  cpu time    0.0003: real time    0.0003
    --------------------------------------------
      LOOP:  cpu time    0.7295: real time    0.7301

 eigenvalue-minimisations  :   120
 total energy-change (2. order) :-0.2677931E+03  (-0.2635918E+03)
 number of electron      48.0000000 magnetization 
 augmentation part       48.0000000 magnetization 

 DIPCOR: dipole corrections for dipol
 direction  1 min pos     1, direction  2 min pos     1, direction  3 min pos     1,
 dipolmoment           0.000003      0.000001     -0.000001 electrons x Angstroem
 Tr[quadrupol]        26.408037

 energy correction for charged system         0.000000 eV
 dipol+quadrupol energy correction           -0.000000 eV
 added-field ion interaction          0.000000 eV  (added to PSCEN)


 Free energy of the ion-electron system (eV)
  ---------------------------------------------------
  alpha Z        PSCENC =         1.00913064
  Ewald energy   TEWEN  =      3088.91719270
  -Hartree energ DENC   =     -5244.53645835
  -exchange      EXHF   =         0.00000000
  -V(xc)+E(xc)   XCENC  =       195.01756129
  PAW double counting   =      2104.90519057    -2115.80374798
  entropy T*S    EENTRO =        -0.00000000
  eigenvalues    EBANDS =      -812.70133471
  atomic energy  EATOM  =      2743.32276819
  Solvation  Ediel_sol  =         0.00000000
  ---------------------------------------------------
  free energy    TOTEN  =       -39.86969764 eV

  energy without entropy =      -39.86969764  energy(sigma->0) =      -39.86969764


--------------------------------------------------------------------------------------------------------




--------------------------------------- Iteration      1(   4)  ---------------------------------------


     EDDAV:  cpu time    0.5471: real time    0.5473
       DOS:  cpu time    0.0003: real time    0.0003
    --------------------------------------------
      LOOP:  cpu time    0.5474: real time    0.5476

 eigenvalue-minimisations  :    84
 total energy-change (2. order) :-0.5570738E+02  (-0.5559249E+02)
 number of electron      48.0000000 magnetization 
 augmentation part       48.0000000 magnetization 

 DIPCOR: dipole corrections for dipol
 direction  1 min pos     1, direction  2 min pos     1, direction  3 min pos     1,
 dipolmoment           0.000003      0.000001     -0.000001 electrons x Angstroem
 Tr[quadrupol]        26.408037

 energy correction for charged system         0.000000 eV
 dipol+quadrupol energy correction           -0.000000 eV
 added-field ion interaction          0.000000 eV  (added to PSCEN)


 Free energy of the ion-electron system (eV)
  ---------------------------------------------------
  alpha Z        PSCENC =         1.00913064
  Ewald energy   TEWEN  =      3088.91719270
  -Hartree energ DENC   =     -5244.53645835
  -exchange      EXHF   =         0.00000000
  -V(xc)+E(xc)   XCENC  =       195.01756129
  PAW double counting   =      2104.90519057    -2115.80374798
  entropy T*S    EENTRO =        -0.00000000
  eigenvalues    EBANDS =      -868.40871502
  atomic energy  EATOM  =      2743.32276819
  Solvation  Ediel_sol  =         0.00000000
  ---------------------------------------------------
  free energy    TOTEN  =       -95.57707796 eV

  energy without entropy =      -95.57707796  energy(sigma->0) =      -95.57707796


--------------------------------------------------------------------------------------------------------




--------------------------------------- Iteration      1(   5)  ---------------------------------------


     EDDAV:  cpu time    0.5796: real time    0.5920
       DOS:  cpu time    0.0003: real time    0.0003
    CHARGE:  cpu time    0.0351: real time    0.0362
    MIXING:  cpu time    0.0036: real time    0.0038
    --------------------------------------------
      LOOP:  cpu time    0.6186: real time    0.6322

 eigenvalue-minimisations  :    88
 total energy-change (2. order) :-0.1125669E+01  (-0.1125249E+01)
 number of electron      48.0000301 magnetization 
 augmentation part        4.9143386 magnetization 

 DIPCOR: dipole corrections for dipol
 direction  1 min pos     1, direction  2 min pos     1, direction  3 min pos     1,
 dipolmoment           0.000003      0.000001     -0.000001 electrons x Angstroem
 Tr[quadrupol]        26.408037

 energy correction for charged system         0.000000 eV
 dipol+quadrupol energy correction           -0.000000 eV
 added-field ion interaction          0.000000 eV  (added to PSCEN)


 Broyden mixing:
  rms(total) = 0.18209E+01    rms(broyden)= 0.18173E+01
  rms(prec ) = 0.19804E+01
  weight for this iteration     100.00

 Free energy of the ion-electron system (eV)
  ---------------------------------------------------
  alpha Z        PSCENC =         1.00913064
  Ewald energy   TEWEN  =      3088.91719270
  -Hartree energ DENC   =     -5244.53645835
  -exchange      EXHF   =         0.00000000
  -V(xc)+E(xc)   XCENC  =       195.01756129
  PAW double counting   =      2104.90519057    -2115.80374798
  entropy T*S    EENTRO =        -0.00000000
  eigenvalues    EBANDS =      -869.53438360
  atomic energy  EATOM  =      2743.32276819
  Solvation  Ediel_sol  =         0.00000000
  ---------------------------------------------------
  free energy    TOTEN  =       -96.70274653 eV

  energy without entropy =      -96.70274653  energy(sigma->0) =      -96.70274653


--------------------------------------------------------------------------------------------------------




--------------------------------------- Iteration      1(   6)  ---------------------------------------


    POTLOK:  cpu time    0.0939: real time    0.0980
    SETDIJ:  cpu time    0.0011: real time    0.0017
    EDDIAG:  cpu time    0.0926: real time    0.1056
  RMM-DIIS:  cpu time    0.5995: real time    0.6024
    ORTHCH:  cpu time    0.0107: real time    0.0107
       DOS:  cpu time    0.0015: real time    0.0015
    CHARGE:  cpu time    0.0353: real time    0.0353
    MIXING:  cpu time    0.0037: real time    0.0037
    --------------------------------------------
      LOOP:  cpu time    0.8383: real time    0.8589

 eigenvalue-minimisations  :    96
 total energy-change (2. order) : 0.9150556E+01  (-0.3573330E+01)
 number of electron      48.0000257 magnetization 
 augmentation part        4.2809203 magnetization 

 DIPCOR: dipole corrections for dipol
 direction  1 min pos     1, direction  2 min pos     1, direction  3 min pos     1,
 dipolmoment           0.070263      0.046156     -0.036199 electrons x Angstroem
 Tr[quadrupol]        24.798555

 energy correction for charged system         0.000000 eV
 dipol+quadrupol energy correction           -0.000032 eV
 added-field ion interaction          0.000570 eV  (added to PSCEN)


 Broyden mixing:
  rms(total) = 0.71343E+00    rms(broyden)= 0.71255E+00
  rms(prec ) = 0.75157E+00
  weight for this iteration     100.00

 eigenvalues of (default mixing * dielectric matrix)
  average eigenvalue GAMMA=   1.0186
  1.0186

 Free energy of the ion-electron system (eV)
  ---------------------------------------------------
  alpha Z        PSCENC =         1.00966911
  Ewald energy   TEWEN  =      3088.91719270
  -Hartree energ DENC   =     -5373.92508917
  -exchange      EXHF   =         0.00000000
  -V(xc)+E(xc)   XCENC  =       202.19702267
  PAW double counting   =      2681.74961374    -2694.58529735
  entropy T*S    EENTRO =        -0.00000000
  eigenvalues    EBANDS =      -736.23807048
  atomic energy  EATOM  =      2743.32276819
  Solvation  Ediel_sol  =         0.00000000
  ---------------------------------------------------
  free energy    TOTEN  =       -87.55219058 eV

  energy without entropy =      -87.55219058  energy(sigma->0) =      -87.55219058


--------------------------------------------------------------------------------------------------------




--------------------------------------- Iteration      1(   7)  ---------------------------------------


    POTLOK:  cpu time    0.0950: real time    0.0951
    SETDIJ:  cpu time    0.0017: real time    0.0017
    EDDIAG:  cpu time    0.0939: real time    0.0939
  RMM-DIIS:  cpu time    0.6098: real time    0.6100
    ORTHCH:  cpu time    0.0116: real time    0.0116
       DOS:  cpu time    0.0007: real time    0.0007
    CHARGE:  cpu time    0.0350: real time    0.0350
    MIXING:  cpu time    0.0042: real time    0.0042
    --------------------------------------------
      LOOP:  cpu time    0.8520: real time    0.8524

 eigenvalue-minimisations  :    96
 total energy-change (2. order) : 0.3762266E+00  (-0.1905733E+00)
 number of electron      48.0000251 magnetization 
 augmentation part        4.1802975 magnetization 

 DIPCOR: dipole corrections for dipol
 direction  1 min pos     1, direction  2 min pos     1, direction  3 min pos     1,
 dipolmoment           0.119319      0.074521     -0.053445 electrons x Angstroem
 Tr[quadrupol]        23.782374

 energy correction for charged system         0.000000 eV
 dipol+quadrupol energy correction           -0.000085 eV
 added-field ion interaction          0.000940 eV  (added to PSCEN)


 Broyden mixing:
  rms(total) = 0.46026E+00    rms(broyden)= 0.46013E+00
  rms(prec ) = 0.48238E+00
  weight for this iteration     100.00

 eigenvalues of (default mixing * dielectric matrix)
  average eigenvalue GAMMA=   1.7302
  1.1923  2.2680

 Free energy of the ion-electron system (eV)
  ---------------------------------------------------
  alpha Z        PSCENC =         1.00998505
  Ewald energy   TEWEN  =      3088.91719270
  -Hartree energ DENC   =     -5404.93219799
  -exchange      EXHF   =         0.00000000
  -V(xc)+E(xc)   XCENC  =       203.69404218
  PAW double counting   =      2997.24037642    -3010.11131338
  entropy T*S    EENTRO =        -0.00000000
  eigenvalues    EBANDS =      -706.31681714
  atomic energy  EATOM  =      2743.32276819
  Solvation  Ediel_sol  =         0.00000000
  ---------------------------------------------------
  free energy    TOTEN  =       -87.17596396 eV

  energy without entropy =      -87.17596396  energy(sigma->0) =      -87.17596396


--------------------------------------------------------------------------------------------------------




--------------------------------------- Iteration      1(   8)  ---------------------------------------


    POTLOK:  cpu time    0.0967: real time    0.0968
    SETDIJ:  cpu time    0.0016: real time    0.0016
    EDDIAG:  cpu time    0.0938: real time    0.0938
  RMM-DIIS:  cpu time    0.6001: real time    0.6001
    ORTHCH:  cpu time    0.0104: real time    0.0104
       DOS:  cpu time    0.0017: real time    0.0017
    CHARGE:  cpu time    0.0353: real time    0.0353
    MIXING:  cpu time    0.0043: real time    0.0043
    --------------------------------------------
      LOOP:  cpu time    0.8440: real time    0.8442

 eigenvalue-minimisations  :    96
 total energy-change (2. order) : 0.2498670E+00  (-0.5081929E-01)
 number of electron      48.0000252 magnetization 
 augmentation part        4.2077081 magnetization 

 DIPCOR: dipole corrections for dipol
 direction  1 min pos     1, direction  2 min pos     1, direction  3 min pos     1,
 dipolmoment           0.207603      0.122680     -0.081105 electrons x Angstroem
 Tr[quadrupol]        22.001807

 energy correction for charged system         0.000000 eV
 dipol+quadrupol energy correction           -0.000244 eV
 added-field ion interaction          0.001590 eV  (added to PSCEN)


 Broyden mixing:
  rms(total) = 0.73038E-01    rms(broyden)= 0.72993E-01
  rms(prec ) = 0.93066E-01
  weight for this iteration     100.00

 eigenvalues of (default mixing * dielectric matrix)
  average eigenvalue GAMMA=   1.5924
  2.4687  1.1543  1.1543

 Free energy of the ion-electron system (eV)
  ---------------------------------------------------
  alpha Z        PSCENC =         1.01047621
  Ewald energy   TEWEN  =      3088.91719270
  -Hartree energ DENC   =     -5427.72552857
  -exchange      EXHF   =         0.00000000
  -V(xc)+E(xc)   XCENC  =       204.57175495
  PAW double counting   =      3379.64214039    -3392.17660436
  entropy T*S    EENTRO =        -0.00000000
  eigenvalues    EBANDS =      -684.48829653
  atomic energy  EATOM  =      2743.32276819
  Solvation  Ediel_sol  =         0.00000000
  ---------------------------------------------------
  free energy    TOTEN  =       -86.92609700 eV

  energy without entropy =      -86.92609700  energy(sigma->0) =      -86.92609700


--------------------------------------------------------------------------------------------------------




--------------------------------------- Iteration      1(   9)  ---------------------------------------


    POTLOK:  cpu time    0.0951: real time    0.0954
    SETDIJ:  cpu time    0.0015: real time    0.0015
    EDDIAG:  cpu time    0.0938: real time    0.0938
  RMM-DIIS:  cpu time    0.5970: real time    0.5970
    ORTHCH:  cpu time    0.0110: real time    0.0110
       DOS:  cpu time    0.0013: real time    0.0013
    CHARGE:  cpu time    0.0357: real time    0.0357
    MIXING:  cpu time    0.0043: real time    0.0043
    --------------------------------------------
      LOOP:  cpu time    0.8396: real time    0.8399

 eigenvalue-minimisations  :    96
 total energy-change (2. order) : 0.3309598E-01  (-0.1735149E-01)
 number of electron      48.0000250 magnetization 
 augmentation part        4.1717549 magnetization 

 DIPCOR: dipole corrections for dipol
 direction  1 min pos     1, direction  2 min pos     1, direction  3 min pos     1,
 dipolmoment           0.242141      0.141621     -0.092249 electrons x Angstroem
 Tr[quadrupol]        21.265225

 energy correction for charged system         0.000000 eV
 dipol+quadrupol energy correction           -0.000329 eV
 added-field ion interaction          0.001845 eV  (added to PSCEN)


 Broyden mixing:
  rms(total) = 0.36536E-01    rms(broyden)= 0.36448E-01
  rms(prec ) = 0.51203E-01
  weight for this iteration     100.00

 eigenvalues of (default mixing * dielectric matrix)
  average eigenvalue GAMMA=   1.6698
  1.0467  1.0467  2.2929  2.2929

 Free energy of the ion-electron system (eV)
  ---------------------------------------------------
  alpha Z        PSCENC =         1.01064669
  Ewald energy   TEWEN  =      3088.91719270
  -Hartree energ DENC   =     -5440.67232915
  -exchange      EXHF   =         0.00000000
  -V(xc)+E(xc)   XCENC  =       205.11894528
  PAW double counting   =      3412.43311904    -3425.06396372
  entropy T*S    EENTRO =        -0.00000000
  eigenvalues    EBANDS =      -671.95938006
  atomic energy  EATOM  =      2743.32276819
  Solvation  Ediel_sol  =         0.00000000
  ---------------------------------------------------
  free energy    TOTEN  =       -86.89300103 eV

  energy without entropy =      -86.89300103  energy(sigma->0) =      -86.89300103


--------------------------------------------------------------------------------------------------------




--------------------------------------- Iteration      1(  10)  ---------------------------------------


    POTLOK:  cpu time    0.0970: real time    0.0973
    SETDIJ:  cpu time    0.0015: real time    0.0015
    EDDIAG:  cpu time    0.0944: real time    0.0944
  RMM-DIIS:  cpu time    0.5535: real time    0.5538
    ORTHCH:  cpu time    0.0110: real time    0.0110
       DOS:  cpu time    0.0014: real time    0.0014
    CHARGE:  cpu time    0.0349: real time    0.0349
    MIXING:  cpu time    0.0047: real time    0.0047
    --------------------------------------------
      LOOP:  cpu time    0.7984: real time    0.7989

 eigenvalue-minimisations  :    92
 total energy-change (2. order) : 0.3638626E-02  (-0.1750900E-02)
 number of electron      48.0000250 magnetization 
 augmentation part        4.1703126 magnetization 

 DIPCOR: dipole corrections for dipol
 direction  1 min pos     1, direction  2 min pos     1, direction  3 min pos     1,
 dipolmoment           0.293046      0.168694     -0.105924 electrons x Angstroem
 Tr[quadrupol]        20.148850

 energy correction for charged system         0.000000 eV
 dipol+quadrupol energy correction           -0.000473 eV
 added-field ion interaction          0.002213 eV  (added to PSCEN)


 Broyden mixing:
  rms(total) = 0.18401E-01    rms(broyden)= 0.18391E-01
  rms(prec ) = 0.28124E-01
  weight for this iteration     100.00

 eigenvalues of (default mixing * dielectric matrix)
  average eigenvalue GAMMA=   1.7390
  3.0131  2.4380  1.0846  1.0846  1.0747

 Free energy of the ion-electron system (eV)
  ---------------------------------------------------
  alpha Z        PSCENC =         1.01086994
  Ewald energy   TEWEN  =      3088.91719270
  -Hartree energ DENC   =     -5446.44789162
  -exchange      EXHF   =         0.00000000
  -V(xc)+E(xc)   XCENC  =       205.10418510
  PAW double counting   =      3370.62257021    -3383.21993268
  entropy T*S    EENTRO =        -0.00000000
  eigenvalues    EBANDS =      -666.19912423
  atomic energy  EATOM  =      2743.32276819
  Solvation  Ediel_sol  =         0.00000000
  ---------------------------------------------------
  free energy    TOTEN  =       -86.88936240 eV

  energy without entropy =      -86.88936240  energy(sigma->0) =      -86.88936240


--------------------------------------------------------------------------------------------------------




--------------------------------------- Iteration      1(  11)  ---------------------------------------


    POTLOK:  cpu time    0.0955: real time    0.0957
    SETDIJ:  cpu time    0.0017: real time    0.0017
    EDDIAG:  cpu time    0.0939: real time    0.0940
  RMM-DIIS:  cpu time    0.5662: real time    0.5671
    ORTHCH:  cpu time    0.0110: real time    0.0110
       DOS:  cpu time    0.0008: real time    0.0008
    CHARGE:  cpu time    0.0349: real time    0.0349
    MIXING:  cpu time    0.0055: real time    0.0055
    --------------------------------------------
      LOOP:  cpu time    0.8096: real time    0.8106

 eigenvalue-minimisations  :    92
 total energy-change (2. order) :-0.1099853E-02  (-0.7756062E-03)
 number of electron      48.0000250 magnetization 
 augmentation part        4.1726987 magnetization 

 DIPCOR: dipole corrections for dipol
 direction  1 min pos     1, direction  2 min pos     1, direction  3 min pos     1,
 dipolmoment           0.323158      0.184755     -0.114175 electrons x Angstroem
 Tr[quadrupol]        19.429476

 energy correction for charged system         0.000000 eV
 dipol+quadrupol energy correction           -0.000572 eV
 added-field ion interaction          0.002431 eV  (added to PSCEN)


 Broyden mixing:
  rms(total) = 0.95795E-02    rms(broyden)= 0.95691E-02
  rms(prec ) = 0.16881E-01
  weight for this iteration     100.00

 eigenvalues of (default mixing * dielectric matrix)
  average eigenvalue GAMMA=   1.9953
  4.2378  2.4408  2.1036  0.9863  1.1017  1.1017

 Free energy of the ion-electron system (eV)
  ---------------------------------------------------
  alpha Z        PSCENC =         1.01098981
  Ewald energy   TEWEN  =      3088.91719270
  -Hartree energ DENC   =     -5450.31607497
  -exchange      EXHF   =         0.00000000
  -V(xc)+E(xc)   XCENC  =       205.13408860
  PAW double counting   =      3372.98065560    -3385.55368151
  entropy T*S    EENTRO =        -0.00000000
  eigenvalues    EBANDS =      -662.38640067
  atomic energy  EATOM  =      2743.32276819
  Solvation  Ediel_sol  =         0.00000000
  ---------------------------------------------------
  free energy    TOTEN  =       -86.89046225 eV

  energy without entropy =      -86.89046225  energy(sigma->0) =      -86.89046225


--------------------------------------------------------------------------------------------------------




--------------------------------------- Iteration      1(  12)  ---------------------------------------


    POTLOK:  cpu time    0.0982: real time    0.0984
    SETDIJ:  cpu time    0.0019: real time    0.0019
    EDDIAG:  cpu time    0.0934: real time    0.0934
  RMM-DIIS:  cpu time    0.5326: real time    0.5330
    ORTHCH:  cpu time    0.0107: real time    0.0107
       DOS:  cpu time    0.0012: real time    0.0012
    CHARGE:  cpu time    0.0355: real time    0.0355
    MIXING:  cpu time    0.0052: real time    0.0052
    --------------------------------------------
      LOOP:  cpu time    0.7787: real time    0.7792

 eigenvalue-minimisations  :    90
 total energy-change (2. order) :-0.1405226E-01  (-0.1025600E-02)
 number of electron      48.0000250 magnetization 
 augmentation part        4.1674616 magnetization 

 DIPCOR: dipole corrections for dipol
 direction  1 min pos     1, direction  2 min pos     1, direction  3 min pos     1,
 dipolmoment           0.358665      0.204014     -0.124132 electrons x Angstroem
 Tr[quadrupol]        18.399639

 energy correction for charged system         0.000000 eV
 dipol+quadrupol energy correction           -0.000700 eV
 added-field ion interaction          0.002689 eV  (added to PSCEN)


 Broyden mixing:
  rms(total) = 0.82608E-02    rms(broyden)= 0.82486E-02
  rms(prec ) = 0.10655E-01
  weight for this iteration     100.00

 eigenvalues of (default mixing * dielectric matrix)
  average eigenvalue GAMMA=   2.0304
  4.6044  2.7570  2.4302  1.2748  0.9997  1.0732  1.0732

 Free energy of the ion-electron system (eV)
  ---------------------------------------------------
  alpha Z        PSCENC =         1.01111993
  Ewald energy   TEWEN  =      3088.91719270
  -Hartree energ DENC   =     -5455.58618450
  -exchange      EXHF   =         0.00000000
  -V(xc)+E(xc)   XCENC  =       205.19487897
  PAW double counting   =      3374.94004960    -3387.52277605
  entropy T*S    EENTRO =        -0.00000000
  eigenvalues    EBANDS =      -657.18156334
  atomic energy  EATOM  =      2743.32276819
  Solvation  Ediel_sol  =         0.00000000
  ---------------------------------------------------
  free energy    TOTEN  =       -86.90451451 eV

  energy without entropy =      -86.90451451  energy(sigma->0) =      -86.90451451


--------------------------------------------------------------------------------------------------------




--------------------------------------- Iteration      1(  13)  ---------------------------------------


    POTLOK:  cpu time    0.0972: real time    0.0973
    SETDIJ:  cpu time    0.0015: real time    0.0015
    EDDIAG:  cpu time    0.0940: real time    0.0940
  RMM-DIIS:  cpu time    0.5570: real time    0.5570
    ORTHCH:  cpu time    0.0104: real time    0.0104
       DOS:  cpu time    0.0014: real time    0.0014
    CHARGE:  cpu time    0.0357: real time    0.0357
    MIXING:  cpu time    0.0051: real time    0.0051
    --------------------------------------------
      LOOP:  cpu time    0.8024: real time    0.8026

 eigenvalue-minimisations  :    90
 total energy-change (2. order) :-0.7104557E-02  (-0.2649048E-03)
 number of electron      48.0000250 magnetization 
 augmentation part        4.1703833 magnetization 

 DIPCOR: dipole corrections for dipol
 direction  1 min pos     1, direction  2 min pos     1, direction  3 min pos     1,
 dipolmoment           0.367312      0.208700     -0.126194 electrons x Angstroem
 Tr[quadrupol]        18.036802

 energy correction for charged system         0.000000 eV
 dipol+quadrupol energy correction           -0.000733 eV
 added-field ion interaction          0.002751 eV  (added to PSCEN)


 Broyden mixing:
  rms(total) = 0.34937E-02    rms(broyden)= 0.34881E-02
  rms(prec ) = 0.52587E-02
  weight for this iteration     100.00

 eigenvalues of (default mixing * dielectric matrix)
  average eigenvalue GAMMA=   2.1182
  5.5958  3.0387  2.4062  1.8325  1.0936  1.0936  1.0130  0.8719

 Free energy of the ion-electron system (eV)
  ---------------------------------------------------
  alpha Z        PSCENC =         1.01114921
  Ewald energy   TEWEN  =      3088.91719270
  -Hartree energ DENC   =     -5455.82010889
  -exchange      EXHF   =         0.00000000
  -V(xc)+E(xc)   XCENC  =       205.14661208
  PAW double counting   =      3375.49593535    -3388.06511804
  entropy T*S    EENTRO =        -0.00000000
  eigenvalues    EBANDS =      -656.92004966
  atomic energy  EATOM  =      2743.32276819
  Solvation  Ediel_sol  =         0.00000000
  ---------------------------------------------------
  free energy    TOTEN  =       -86.91161907 eV

  energy without entropy =      -86.91161907  energy(sigma->0) =      -86.91161907


--------------------------------------------------------------------------------------------------------




--------------------------------------- Iteration      1(  14)  ---------------------------------------


    POTLOK:  cpu time    0.0967: real time    0.0972
    SETDIJ:  cpu time    0.0017: real time    0.0017
    EDDIAG:  cpu time    0.0944: real time    0.0944
  RMM-DIIS:  cpu time    0.5384: real time    0.5385
    ORTHCH:  cpu time    0.0104: real time    0.0104
       DOS:  cpu time    0.0014: real time    0.0014
    CHARGE:  cpu time    0.0351: real time    0.0351
    MIXING:  cpu time    0.0056: real time    0.0056
    --------------------------------------------
      LOOP:  cpu time    0.7838: real time    0.7843

 eigenvalue-minimisations  :    89
 total energy-change (2. order) :-0.5137697E-02  (-0.7605171E-04)
 number of electron      48.0000250 magnetization 
 augmentation part        4.1710840 magnetization 

 DIPCOR: dipole corrections for dipol
 direction  1 min pos     1, direction  2 min pos     1, direction  3 min pos     1,
 dipolmoment           0.372335      0.211427     -0.127381 electrons x Angstroem
 Tr[quadrupol]        17.769977

 energy correction for charged system         0.000000 eV
 dipol+quadrupol energy correction           -0.000752 eV
 added-field ion interaction          0.002788 eV  (added to PSCEN)


 Broyden mixing:
  rms(total) = 0.44225E-02    rms(broyden)= 0.44217E-02
  rms(prec ) = 0.52275E-02
  weight for this iteration     100.00

 eigenvalues of (default mixing * dielectric matrix)
  average eigenvalue GAMMA=   2.1839
  6.2004  3.4371  2.4930  2.1868  1.2307  1.0617  1.0617  0.9920  0.9920

 Free energy of the ion-electron system (eV)
  ---------------------------------------------------
  alpha Z        PSCENC =         1.01116586
  Ewald energy   TEWEN  =      3088.91719270
  -Hartree energ DENC   =     -5456.22045978
  -exchange      EXHF   =         0.00000000
  -V(xc)+E(xc)   XCENC  =       205.13626110
  PAW double counting   =      3375.48036796    -3388.04733930
  entropy T*S    EENTRO =        -0.00000000
  eigenvalues    EBANDS =      -656.51671349
  atomic energy  EATOM  =      2743.32276819
  Solvation  Ediel_sol  =         0.00000000
  ---------------------------------------------------
  free energy    TOTEN  =       -86.91675676 eV

  energy without entropy =      -86.91675676  energy(sigma->0) =      -86.91675676


--------------------------------------------------------------------------------------------------------




--------------------------------------- Iteration      1(  15)  ---------------------------------------


    POTLOK:  cpu time    0.0975: real time    0.0977
    SETDIJ:  cpu time    0.0017: real time    0.0017
    EDDIAG:  cpu time    0.0942: real time    0.0942
  RMM-DIIS:  cpu time    0.5137: real time    0.5139
    ORTHCH:  cpu time    0.0103: real time    0.0103
       DOS:  cpu time    0.0015: real time    0.0015
    CHARGE:  cpu time    0.0353: real time    0.0353
    MIXING:  cpu time    0.0059: real time    0.0059
    --------------------------------------------
      LOOP:  cpu time    0.7602: real time    0.7606

 eigenvalue-minimisations  :    89
 total energy-change (2. order) :-0.2882586E-02  (-0.9160746E-04)
 number of electron      48.0000250 magnetization 
 augmentation part        4.1688930 magnetization 

 DIPCOR: dipole corrections for dipol
 direction  1 min pos     1, direction  2 min pos     1, direction  3 min pos     1,
 dipolmoment           0.375494      0.213126     -0.128264 electrons x Angstroem
 Tr[quadrupol]        17.589882

 energy correction for charged system         0.000000 eV
 dipol+quadrupol energy correction           -0.000765 eV
 added-field ion interaction          0.002811 eV  (added to PSCEN)


 Broyden mixing:
  rms(total) = 0.19236E-02    rms(broyden)= 0.19194E-02
  rms(prec ) = 0.24430E-02
  weight for this iteration     100.00

 eigenvalues of (default mixing * dielectric matrix)
  average eigenvalue GAMMA=   2.3310
  7.1547  4.0231  2.5116  2.1537  2.1537  1.0550  1.0550  1.1946  0.9456  1.0624

 Free energy of the ion-electron system (eV)
  ---------------------------------------------------
  alpha Z        PSCENC =         1.01117634
  Ewald energy   TEWEN  =      3088.91719270
  -Hartree energ DENC   =     -5456.85540297
  -exchange      EXHF   =         0.00000000
  -V(xc)+E(xc)   XCENC  =       205.15612782
  PAW double counting   =      3376.14367753    -3388.71726100
  entropy T*S    EENTRO =        -0.00000000
  eigenvalues    EBANDS =      -655.89791796
  atomic energy  EATOM  =      2743.32276819
  Solvation  Ediel_sol  =         0.00000000
  ---------------------------------------------------
  free energy    TOTEN  =       -86.91963935 eV

  energy without entropy =      -86.91963935  energy(sigma->0) =      -86.91963935


--------------------------------------------------------------------------------------------------------




--------------------------------------- Iteration      1(  16)  ---------------------------------------


    POTLOK:  cpu time    0.0977: real time    0.0979
    SETDIJ:  cpu time    0.0016: real time    0.0016
    EDDIAG:  cpu time    0.0938: real time    0.0938
  RMM-DIIS:  cpu time    0.5378: real time    0.5381
    ORTHCH:  cpu time    0.0106: real time    0.0106
       DOS:  cpu time    0.0016: real time    0.0016
    CHARGE:  cpu time    0.0349: real time    0.0349
    MIXING:  cpu time    0.0067: real time    0.0067
    --------------------------------------------
      LOOP:  cpu time    0.7848: real time    0.7852

 eigenvalue-minimisations  :    87
 total energy-change (2. order) :-0.1689531E-02  (-0.2991137E-04)
 number of electron      48.0000250 magnetization 
 augmentation part        4.1695517 magnetization 

 DIPCOR: dipole corrections for dipol
 direction  1 min pos     1, direction  2 min pos     1, direction  3 min pos     1,
 dipolmoment           0.377829      0.214290     -0.128898 electrons x Angstroem
 Tr[quadrupol]        17.459974

 energy correction for charged system         0.000000 eV
 dipol+quadrupol energy correction           -0.000774 eV
 added-field ion interaction          0.002827 eV  (added to PSCEN)


 Broyden mixing:
  rms(total) = 0.84821E-03    rms(broyden)= 0.84773E-03
  rms(prec ) = 0.11069E-02
  weight for this iteration     100.00

 eigenvalues of (default mixing * dielectric matrix)
  average eigenvalue GAMMA=   2.3469
  7.5150  4.5753  2.8741  2.4877  1.9989  0.9365  1.0197  1.1388  1.1388  1.0656
  1.0656

 Free energy of the ion-electron system (eV)
  ---------------------------------------------------
  alpha Z        PSCENC =         1.01118388
  Ewald energy   TEWEN  =      3088.91719270
  -Hartree energ DENC   =     -5456.71196832
  -exchange      EXHF   =         0.00000000
  -V(xc)+E(xc)   XCENC  =       205.14143280
  PAW double counting   =      3375.34814386    -3387.91849086
  entropy T*S    EENTRO =        -0.00000000
  eigenvalues    EBANDS =      -656.03159113
  atomic energy  EATOM  =      2743.32276819
  Solvation  Ediel_sol  =         0.00000000
  ---------------------------------------------------
  free energy    TOTEN  =       -86.92132888 eV

  energy without entropy =      -86.92132888  energy(sigma->0) =      -86.92132888


--------------------------------------------------------------------------------------------------------




--------------------------------------- Iteration      1(  17)  ---------------------------------------


    POTLOK:  cpu time    0.0981: real time    0.0983
    SETDIJ:  cpu time    0.0017: real time    0.0017
    EDDIAG:  cpu time    0.0946: real time    0.0946
  RMM-DIIS:  cpu time    0.5623: real time    0.5625
    ORTHCH:  cpu time    0.0111: real time    0.0111
       DOS:  cpu time    0.0013: real time    0.0013
    CHARGE:  cpu time    0.0352: real time    0.0352
    MIXING:  cpu time    0.0065: real time    0.0065
    --------------------------------------------
      LOOP:  cpu time    0.8107: real time    0.8112

 eigenvalue-minimisations  :    94
 total energy-change (2. order) :-0.4484989E-03  (-0.8298640E-05)
 number of electron      48.0000250 magnetization 
 augmentation part        4.1690192 magnetization 

 DIPCOR: dipole corrections for dipol
 direction  1 min pos     1, direction  2 min pos     1, direction  3 min pos     1,
 dipolmoment           0.379428      0.215142     -0.129383 electrons x Angstroem
 Tr[quadrupol]        17.407252

 energy correction for charged system         0.000000 eV
 dipol+quadrupol energy correction           -0.000780 eV
 added-field ion interaction          0.002839 eV  (added to PSCEN)


 Broyden mixing:
  rms(total) = 0.10260E-02    rms(broyden)= 0.10255E-02
  rms(prec ) = 0.11734E-02
  weight for this iteration     100.00

 eigenvalues of (default mixing * dielectric matrix)
  average eigenvalue GAMMA=   2.3302
  7.7027  5.0215  2.9481  2.4279  2.0038  1.4216  1.4216  1.0636  1.0636  0.9312
  0.9785  0.9785

 Free energy of the ion-electron system (eV)
  ---------------------------------------------------
  alpha Z        PSCENC =         1.01118914
  Ewald energy   TEWEN  =      3088.91719270
  -Hartree energ DENC   =     -5456.86945868
  -exchange      EXHF   =         0.00000000
  -V(xc)+E(xc)   XCENC  =       205.14720932
  PAW double counting   =      3375.08682068    -3387.65907328
  entropy T*S    EENTRO =        -0.00000000
  eigenvalues    EBANDS =      -655.87842546
  atomic energy  EATOM  =      2743.32276819
  Solvation  Ediel_sol  =         0.00000000
  ---------------------------------------------------
  free energy    TOTEN  =       -86.92177738 eV

  energy without entropy =      -86.92177738  energy(sigma->0) =      -86.92177738


--------------------------------------------------------------------------------------------------------




--------------------------------------- Iteration      1(  18)  ---------------------------------------


    POTLOK:  cpu time    0.0984: real time    0.0986
    SETDIJ:  cpu time    0.0017: real time    0.0017
    EDDIAG:  cpu time    0.0941: real time    0.0941
  RMM-DIIS:  cpu time    0.5350: real time    0.5350
    ORTHCH:  cpu time    0.0108: real time    0.0108
       DOS:  cpu time    0.0013: real time    0.0013
    CHARGE:  cpu time    0.0352: real time    0.0352
    MIXING:  cpu time    0.0069: real time    0.0069
    --------------------------------------------
      LOOP:  cpu time    0.7835: real time    0.7837

 eigenvalue-minimisations  :    92
 total energy-change (2. order) :-0.2832492E-03  (-0.1976403E-05)
 number of electron      48.0000250 magnetization 
 augmentation part        4.1692637 magnetization 

 DIPCOR: dipole corrections for dipol
 direction  1 min pos     1, direction  2 min pos     1, direction  3 min pos     1,
 dipolmoment           0.380919      0.215974     -0.129833 electrons x Angstroem
 Tr[quadrupol]        17.374768

 energy correction for charged system         0.000000 eV
 dipol+quadrupol energy correction           -0.000786 eV
 added-field ion interaction          0.002850 eV  (added to PSCEN)


 Broyden mixing:
  rms(total) = 0.32779E-03    rms(broyden)= 0.32753E-03
  rms(prec ) = 0.43042E-03
  weight for this iteration     100.00

 eigenvalues of (default mixing * dielectric matrix)
  average eigenvalue GAMMA=   2.3687
  8.0172  5.3757  3.1276  2.4579  2.4579  1.8298  1.1950  0.9711  0.9711  1.0597
  1.0597  1.1350  1.1350

 Free energy of the ion-electron system (eV)
  ---------------------------------------------------
  alpha Z        PSCENC =         1.01119407
  Ewald energy   TEWEN  =      3088.91719270
  -Hartree energ DENC   =     -5456.82102578
  -exchange      EXHF   =         0.00000000
  -V(xc)+E(xc)   XCENC  =       205.14341864
  PAW double counting   =      3375.17975688    -3387.75099454
  entropy T*S    EENTRO =        -0.00000000
  eigenvalues    EBANDS =      -655.92437079
  atomic energy  EATOM  =      2743.32276819
  Solvation  Ediel_sol  =         0.00000000
  ---------------------------------------------------
  free energy    TOTEN  =       -86.92206063 eV

  energy without entropy =      -86.92206063  energy(sigma->0) =      -86.92206063


--------------------------------------------------------------------------------------------------------




--------------------------------------- Iteration      1(  19)  ---------------------------------------


    POTLOK:  cpu time    0.0980: real time    0.0983
    SETDIJ:  cpu time    0.0015: real time    0.0015
    EDDIAG:  cpu time    0.0941: real time    0.0942
  RMM-DIIS:  cpu time    0.5452: real time    0.5452
    ORTHCH:  cpu time    0.0109: real time    0.0109
       DOS:  cpu time    0.0013: real time    0.0013
    CHARGE:  cpu time    0.0352: real time    0.0352
    MIXING:  cpu time    0.0091: real time    0.0092
    --------------------------------------------
      LOOP:  cpu time    0.7954: real time    0.7958

 eigenvalue-minimisations  :    89
 total energy-change (2. order) :-0.1609425E-03  (-0.1046897E-05)
 number of electron      48.0000250 magnetization 
 augmentation part        4.1694851 magnetization 

 DIPCOR: dipole corrections for dipol
 direction  1 min pos     1, direction  2 min pos     1, direction  3 min pos     1,
 dipolmoment           0.382295      0.216783     -0.130274 electrons x Angstroem
 Tr[quadrupol]        17.351761

 energy correction for charged system         0.000000 eV
 dipol+quadrupol energy correction           -0.000792 eV
 added-field ion interaction          0.002860 eV  (added to PSCEN)


 Broyden mixing:
  rms(total) = 0.39360E-03    rms(broyden)= 0.39326E-03
  rms(prec ) = 0.44192E-03
  weight for this iteration     100.00

 eigenvalues of (default mixing * dielectric matrix)
  average eigenvalue GAMMA=   2.3759
  8.3670  5.8417  3.4245  2.7392  2.4645  1.9442  1.1767  1.1767  1.0146  0.9358
  1.0445  1.0445  1.0442  1.0442

 Free energy of the ion-electron system (eV)
  ---------------------------------------------------
  alpha Z        PSCENC =         1.01119868
  Ewald energy   TEWEN  =      3088.91719270
  -Hartree energ DENC   =     -5456.79905221
  -exchange      EXHF   =         0.00000000
  -V(xc)+E(xc)   XCENC  =       205.14098787
  PAW double counting   =      3375.15735958    -3387.72806185
  entropy T*S    EENTRO =        -0.00000000
  eigenvalues    EBANDS =      -655.94461452
  atomic energy  EATOM  =      2743.32276819
  Solvation  Ediel_sol  =         0.00000000
  ---------------------------------------------------
  free energy    TOTEN  =       -86.92222157 eV

  energy without entropy =      -86.92222157  energy(sigma->0) =      -86.92222157


--------------------------------------------------------------------------------------------------------




--------------------------------------- Iteration      1(  20)  ---------------------------------------


    POTLOK:  cpu time    0.0997: real time    0.1000
    SETDIJ:  cpu time    0.0015: real time    0.0015
    EDDIAG:  cpu time    0.0928: real time    0.0928
  RMM-DIIS:  cpu time    0.4452: real time    0.4456
    ORTHCH:  cpu time    0.0108: real time    0.0108
       DOS:  cpu time    0.0013: real time    0.0013
    CHARGE:  cpu time    0.0352: real time    0.0352
    MIXING:  cpu time    0.0077: real time    0.0077
    --------------------------------------------
      LOOP:  cpu time    0.6942: real time    0.6948

 eigenvalue-minimisations  :    71
 total energy-change (2. order) :-0.5665488E-04  (-0.1221070E-06)
 number of electron      48.0000250 magnetization 
 augmentation part        4.1694597 magnetization 

 DIPCOR: dipole corrections for dipol
 direction  1 min pos     1, direction  2 min pos     1, direction  3 min pos     1,
 dipolmoment           0.383029      0.217254     -0.130529 electrons x Angstroem
 Tr[quadrupol]        17.341617

 energy correction for charged system         0.000000 eV
 dipol+quadrupol energy correction           -0.000795 eV
 added-field ion interaction          0.002866 eV  (added to PSCEN)


 Broyden mixing:
  rms(total) = 0.24537E-03    rms(broyden)= 0.24537E-03
  rms(prec ) = 0.27777E-03
  weight for this iteration     100.00

 eigenvalues of (default mixing * dielectric matrix)
  average eigenvalue GAMMA=   2.4823
  8.8612  6.2621  4.1979  2.7950  2.4473  2.4473  1.6767  1.3273  1.0792  1.0792
  1.0772  1.0772  0.9614  0.9730  0.9730

 Free energy of the ion-electron system (eV)
  ---------------------------------------------------
  alpha Z        PSCENC =         1.01120120
  Ewald energy   TEWEN  =      3088.91719270
  -Hartree energ DENC   =     -5456.81364750
  -exchange      EXHF   =         0.00000000
  -V(xc)+E(xc)   XCENC  =       205.14151853
  PAW double counting   =      3375.20010289    -3387.77106259
  entropy T*S    EENTRO =        -0.00000000
  eigenvalues    EBANDS =      -655.93035164
  atomic energy  EATOM  =      2743.32276819
  Solvation  Ediel_sol  =         0.00000000
  ---------------------------------------------------
  free energy    TOTEN  =       -86.92227822 eV

  energy without entropy =      -86.92227822  energy(sigma->0) =      -86.92227822


--------------------------------------------------------------------------------------------------------




--------------------------------------- Iteration      1(  21)  ---------------------------------------


    POTLOK:  cpu time    0.1000: real time    0.1002
    SETDIJ:  cpu time    0.0015: real time    0.0015
    EDDIAG:  cpu time    0.0935: real time    0.0936
  RMM-DIIS:  cpu time    0.4174: real time    0.4259
    ORTHCH:  cpu time    0.0103: real time    0.0103
       DOS:  cpu time    0.0017: real time    0.0017
    CHARGE:  cpu time    0.0352: real time    0.0353
    MIXING:  cpu time    0.0081: real time    0.0081
    --------------------------------------------
      LOOP:  cpu time    0.6677: real time    0.6766

 eigenvalue-minimisations  :    68
 total energy-change (2. order) :-0.4421786E-04  (-0.2498143E-06)
 number of electron      48.0000250 magnetization 
 augmentation part        4.1693583 magnetization 

 DIPCOR: dipole corrections for dipol
 direction  1 min pos     1, direction  2 min pos     1, direction  3 min pos     1,
 dipolmoment           0.383941      0.217895     -0.130871 electrons x Angstroem
 Tr[quadrupol]        17.332559

 energy correction for charged system         0.000000 eV
 dipol+quadrupol energy correction           -0.000799 eV
 added-field ion interaction          0.002873 eV  (added to PSCEN)


 Broyden mixing:
  rms(total) = 0.10193E-03    rms(broyden)= 0.10170E-03
  rms(prec ) = 0.11520E-03
  weight for this iteration     100.00

 eigenvalues of (default mixing * dielectric matrix)
  average eigenvalue GAMMA=   2.4495
  9.0152  6.4388  4.3949  2.9105  2.3965  2.3965  1.6277  1.6277  1.0960  1.0960
  0.9601  0.9601  1.0797  1.0797  1.0561  1.0561

 Free energy of the ion-electron system (eV)
  ---------------------------------------------------
  alpha Z        PSCENC =         1.01120442
  Ewald energy   TEWEN  =      3088.91719270
  -Hartree energ DENC   =     -5456.84170772
  -exchange      EXHF   =         0.00000000
  -V(xc)+E(xc)   XCENC  =       205.14266622
  PAW double counting   =      3375.22487511    -3387.79617172
  entropy T*S    EENTRO =        -0.00000000
  eigenvalues    EBANDS =      -655.90314965
  atomic energy  EATOM  =      2743.32276819
  Solvation  Ediel_sol  =         0.00000000
  ---------------------------------------------------
  free energy    TOTEN  =       -86.92232244 eV

  energy without entropy =      -86.92232244  energy(sigma->0) =      -86.92232244


--------------------------------------------------------------------------------------------------------




--------------------------------------- Iteration      1(  22)  ---------------------------------------


    POTLOK:  cpu time    0.0998: real time    0.1000
    SETDIJ:  cpu time    0.0015: real time    0.0015
    EDDIAG:  cpu time    0.0961: real time    0.0961
  RMM-DIIS:  cpu time    0.4276: real time    0.4276
    ORTHCH:  cpu time    0.0101: real time    0.0101
       DOS:  cpu time    0.0017: real time    0.0017
    CHARGE:  cpu time    0.0353: real time    0.0353
    MIXING:  cpu time    0.0083: real time    0.0083
    --------------------------------------------
      LOOP:  cpu time    0.6805: real time    0.6808

 eigenvalue-minimisations  :    70
 total energy-change (2. order) :-0.8591389E-05  (-0.4172895E-07)
 number of electron      48.0000250 magnetization 
 augmentation part        4.1693650 magnetization 

 DIPCOR: dipole corrections for dipol
 direction  1 min pos     1, direction  2 min pos     1, direction  3 min pos     1,
 dipolmoment           0.384195      0.218098     -0.130977 electrons x Angstroem
 Tr[quadrupol]        17.330563

 energy correction for charged system         0.000000 eV
 dipol+quadrupol energy correction           -0.000800 eV
 added-field ion interaction          0.002875 eV  (added to PSCEN)


 Broyden mixing:
  rms(total) = 0.38625E-04    rms(broyden)= 0.38576E-04
  rms(prec ) = 0.48756E-04
  weight for this iteration     100.00

 eigenvalues of (default mixing * dielectric matrix)
  average eigenvalue GAMMA=   2.4517
  9.1573  6.5939  4.6705  3.0688  2.5607  2.2791  2.2791  1.4674  1.4674  1.0732
  1.0732  1.0738  1.0738  0.9463  0.9463  1.0196  0.9280

 Free energy of the ion-electron system (eV)
  ---------------------------------------------------
  alpha Z        PSCENC =         1.01120536
  Ewald energy   TEWEN  =      3088.91719270
  -Hartree energ DENC   =     -5456.83580065
  -exchange      EXHF   =         0.00000000
  -V(xc)+E(xc)   XCENC  =       205.14230516
  PAW double counting   =      3375.21799008    -3387.78919851
  entropy T*S    EENTRO =        -0.00000000
  eigenvalues    EBANDS =      -655.90879336
  atomic energy  EATOM  =      2743.32276819
  Solvation  Ediel_sol  =         0.00000000
  ---------------------------------------------------
  free energy    TOTEN  =       -86.92233103 eV

  energy without entropy =      -86.92233103  energy(sigma->0) =      -86.92233103


--------------------------------------------------------------------------------------------------------




--------------------------------------- Iteration      1(  23)  ---------------------------------------


    POTLOK:  cpu time    0.1004: real time    0.1007
    SETDIJ:  cpu time    0.0018: real time    0.0018
    EDDIAG:  cpu time    0.0939: real time    0.0939
  RMM-DIIS:  cpu time    0.3848: real time    0.3851
    ORTHCH:  cpu time    0.0101: real time    0.0101
       DOS:  cpu time    0.0017: real time    0.0017
    CHARGE:  cpu time    0.0355: real time    0.0355
    MIXING:  cpu time    0.0087: real time    0.0087
    --------------------------------------------
      LOOP:  cpu time    0.6369: real time    0.6373

 eigenvalue-minimisations  :    58
 total energy-change (2. order) :-0.5680650E-05  (-0.1282002E-07)
 number of electron      48.0000250 magnetization 
 augmentation part        4.1693602 magnetization 

 DIPCOR: dipole corrections for dipol
 direction  1 min pos     1, direction  2 min pos     1, direction  3 min pos     1,
 dipolmoment           0.384405      0.218279     -0.131071 electrons x Angstroem
 Tr[quadrupol]        17.329001

 energy correction for charged system         0.000000 eV
 dipol+quadrupol energy correction           -0.000801 eV
 added-field ion interaction          0.002877 eV  (added to PSCEN)


 Broyden mixing:
  rms(total) = 0.48226E-04    rms(broyden)= 0.48214E-04
  rms(prec ) = 0.54324E-04
  weight for this iteration     100.00

 eigenvalues of (default mixing * dielectric matrix)
  average eigenvalue GAMMA=   2.4665
  9.2580  6.9171  4.8567  3.4100  2.7009  2.3935  2.3935  1.5801  1.5801  1.0824
  1.0824  1.0469  1.0469  1.0806  1.0806  0.9580  0.9643  0.9643

 Free energy of the ion-electron system (eV)
  ---------------------------------------------------
  alpha Z        PSCENC =         1.01120616
  Ewald energy   TEWEN  =      3088.91719270
  -Hartree energ DENC   =     -5456.83754879
  -exchange      EXHF   =         0.00000000
  -V(xc)+E(xc)   XCENC  =       205.14240530
  PAW double counting   =      3375.22679781    -3387.79803115
  entropy T*S    EENTRO =        -0.00000000
  eigenvalues    EBANDS =      -655.90712694
  atomic energy  EATOM  =      2743.32276819
  Solvation  Ediel_sol  =         0.00000000
  ---------------------------------------------------
  free energy    TOTEN  =       -86.92233671 eV

  energy without entropy =      -86.92233671  energy(sigma->0) =      -86.92233671


--------------------------------------------------------------------------------------------------------




--------------------------------------- Iteration      1(  24)  ---------------------------------------


    POTLOK:  cpu time    0.1005: real time    0.1007
    SETDIJ:  cpu time    0.0015: real time    0.0015
    EDDIAG:  cpu time    0.0953: real time    0.0953
  RMM-DIIS:  cpu time    0.3697: real time    0.3703
    ORTHCH:  cpu time    0.0105: real time    0.0106
       DOS:  cpu time    0.0015: real time    0.0015
    CHARGE:  cpu time    0.0357: real time    0.0358
    MIXING:  cpu time    0.0091: real time    0.0091
    --------------------------------------------
      LOOP:  cpu time    0.6238: real time    0.6247

 eigenvalue-minimisations  :    48
 total energy-change (2. order) :-0.2903579E-05  (-0.5566859E-08)
 number of electron      48.0000250 magnetization 
 augmentation part        4.1693590 magnetization 

 DIPCOR: dipole corrections for dipol
 direction  1 min pos     1, direction  2 min pos     1, direction  3 min pos     1,
 dipolmoment           0.384534      0.218403     -0.131134 electrons x Angstroem
 Tr[quadrupol]        17.327969

 energy correction for charged system         0.000000 eV
 dipol+quadrupol energy correction           -0.000802 eV
 added-field ion interaction          0.002878 eV  (added to PSCEN)


 Broyden mixing:
  rms(total) = 0.20358E-04    rms(broyden)= 0.20336E-04
  rms(prec ) = 0.23992E-04
  weight for this iteration     100.00

 eigenvalues of (default mixing * dielectric matrix)
  average eigenvalue GAMMA=   2.4007
  9.2753  6.9768  4.8931  3.4511  2.6929  2.4726  1.9601  1.9601  1.1483  1.1483
  1.2405  1.2405  1.2654  1.0633  1.0633  0.9938  0.9457  0.9457  0.8770

 Free energy of the ion-electron system (eV)
  ---------------------------------------------------
  alpha Z        PSCENC =         1.01120668
  Ewald energy   TEWEN  =      3088.91719270
  -Hartree energ DENC   =     -5456.83720488
  -exchange      EXHF   =         0.00000000
  -V(xc)+E(xc)   XCENC  =       205.14240012
  PAW double counting   =      3375.21766028    -3387.78888314
  entropy T*S    EENTRO =        -0.00000000
  eigenvalues    EBANDS =      -655.90747958
  atomic energy  EATOM  =      2743.32276819
  Solvation  Ediel_sol  =         0.00000000
  ---------------------------------------------------
  free energy    TOTEN  =       -86.92233962 eV

  energy without entropy =      -86.92233962  energy(sigma->0) =      -86.92233962


--------------------------------------------------------------------------------------------------------




--------------------------------------- Iteration      1(  25)  ---------------------------------------


    POTLOK:  cpu time    0.1013: real time    0.1016
    SETDIJ:  cpu time    0.0015: real time    0.0015
    EDDIAG:  cpu time    0.0946: real time    0.0946
  RMM-DIIS:  cpu time    0.3997: real time    0.4068
    ORTHCH:  cpu time    0.0106: real time    0.0106
       DOS:  cpu time    0.0014: real time    0.0014
    CHARGE:  cpu time    0.0362: real time    0.0362
    MIXING:  cpu time    0.0107: real time    0.0107
    --------------------------------------------
      LOOP:  cpu time    0.6561: real time    0.6635

 eigenvalue-minimisations  :    53
 total energy-change (2. order) :-0.1126321E-05  (-0.2574213E-08)
 number of electron      48.0000250 magnetization 
 augmentation part        4.1693628 magnetization 

 DIPCOR: dipole corrections for dipol
 direction  1 min pos     1, direction  2 min pos     1, direction  3 min pos     1,
 dipolmoment           0.384569      0.218443     -0.131154 electrons x Angstroem
 Tr[quadrupol]        17.327620

 energy correction for charged system         0.000000 eV
 dipol+quadrupol energy correction           -0.000802 eV
 added-field ion interaction          0.002878 eV  (added to PSCEN)


 Broyden mixing:
  rms(total) = 0.12515E-04    rms(broyden)= 0.12497E-04
  rms(prec ) = 0.15403E-04
  weight for this iteration     100.00

 eigenvalues of (default mixing * dielectric matrix)
  average eigenvalue GAMMA=   2.3737
  9.2711  7.0378  4.9231  3.4501  2.7342  2.4260  2.1778  2.1778  1.7568  1.4351
  1.0880  1.0880  1.2127  1.0582  1.0582  0.9735  0.9735  0.8865  0.8732  0.8732

 Free energy of the ion-electron system (eV)
  ---------------------------------------------------
  alpha Z        PSCENC =         1.01120683
  Ewald energy   TEWEN  =      3088.91719270
  -Hartree energ DENC   =     -5456.83645247
  -exchange      EXHF   =         0.00000000
  -V(xc)+E(xc)   XCENC  =       205.14235476
  PAW double counting   =      3375.21579512    -3387.78699696
  entropy T*S    EENTRO =        -0.00000000
  eigenvalues    EBANDS =      -655.90820892
  atomic energy  EATOM  =      2743.32276819
  Solvation  Ediel_sol  =         0.00000000
  ---------------------------------------------------
  free energy    TOTEN  =       -86.92234074 eV

  energy without entropy =      -86.92234074  energy(sigma->0) =      -86.92234074


--------------------------------------------------------------------------------------------------------




--------------------------------------- Iteration      1(  26)  ---------------------------------------


    POTLOK:  cpu time    0.1034: real time    0.1036
    SETDIJ:  cpu time    0.0016: real time    0.0016
    EDDIAG:  cpu time    0.0951: real time    0.0951
  RMM-DIIS:  cpu time    0.3522: real time    0.3524
    ORTHCH:  cpu time    0.0104: real time    0.0105
       DOS:  cpu time    0.0016: real time    0.0016
    CHARGE:  cpu time    0.0353: real time    0.0353
    MIXING:  cpu time    0.0109: real time    0.0109
    --------------------------------------------
      LOOP:  cpu time    0.6106: real time    0.6109

 eigenvalue-minimisations  :    47
 total energy-change (2. order) :-0.1545127E-05  (-0.2547161E-08)
 number of electron      48.0000250 magnetization 
 augmentation part        4.1693629 magnetization 

 DIPCOR: dipole corrections for dipol
 direction  1 min pos     1, direction  2 min pos     1, direction  3 min pos     1,
 dipolmoment           0.384608      0.218492     -0.131179 electrons x Angstroem
 Tr[quadrupol]        17.327221

 energy correction for charged system         0.000000 eV
 dipol+quadrupol energy correction           -0.000802 eV
 added-field ion interaction          0.002879 eV  (added to PSCEN)


 Broyden mixing:
  rms(total) = 0.18221E-04    rms(broyden)= 0.18210E-04
  rms(prec ) = 0.20093E-04
  weight for this iteration     100.00

 eigenvalues of (default mixing * dielectric matrix)
  average eigenvalue GAMMA=   2.3914
  9.3581  7.2031  5.2470  4.1063  2.8390  2.6669  2.3916  2.2894  1.5928  1.5928
  1.1064  1.1064  1.0480  1.0480  1.0976  0.9753  0.9753  0.9935  0.9935  0.7946
  0.7946

 Free energy of the ion-electron system (eV)
  ---------------------------------------------------
  alpha Z        PSCENC =         1.01120701
  Ewald energy   TEWEN  =      3088.91719270
  -Hartree energ DENC   =     -5456.83583379
  -exchange      EXHF   =         0.00000000
  -V(xc)+E(xc)   XCENC  =       205.14232177
  PAW double counting   =      3375.21678217    -3387.78797224
  entropy T*S    EENTRO =        -0.00000000
  eigenvalues    EBANDS =      -655.90880810
  atomic energy  EATOM  =      2743.32276819
  Solvation  Ediel_sol  =         0.00000000
  ---------------------------------------------------
  free energy    TOTEN  =       -86.92234229 eV

  energy without entropy =      -86.92234229  energy(sigma->0) =      -86.92234229


--------------------------------------------------------------------------------------------------------




--------------------------------------- Iteration      1(  27)  ---------------------------------------


    POTLOK:  cpu time    0.1031: real time    0.1034
    SETDIJ:  cpu time    0.0015: real time    0.0015
    EDDIAG:  cpu time    0.0954: real time    0.0954
  RMM-DIIS:  cpu time    0.3867: real time    0.3868
    ORTHCH:  cpu time    0.0119: real time    0.0119
       DOS:  cpu time    0.0006: real time    0.0006
    --------------------------------------------
      LOOP:  cpu time    0.5992: real time    0.5995

 eigenvalue-minimisations  :    46
 total energy-change (2. order) :-0.8193133E-06  (-0.5930207E-09)
 number of electron      48.0000250 magnetization 
 augmentation part        4.1693629 magnetization 

 DIPCOR: dipole corrections for dipol
 direction  1 min pos     1, direction  2 min pos     1, direction  3 min pos     1,
 dipolmoment           0.384633      0.218523     -0.131194 electrons x Angstroem
 Tr[quadrupol]        17.326984

 energy correction for charged system         0.000000 eV
 dipol+quadrupol energy correction           -0.000803 eV
[...]
 Tr[quadrupol]        17.624291

 energy correction for charged system         0.000000 eV
 dipol+quadrupol energy correction           -0.000611 eV
 added-field ion interaction          0.003380 eV  (added to PSCEN)


 eigenvalues of (default mixing * dielectric matrix)
  average eigenvalue GAMMA=   2.0488
  6.8746  3.2594  2.2413  2.2413  1.8006  1.0653  1.0653  1.0383  0.9956  0.9778
  0.9778

  free energy =  -0.873844064240E+02  energy without entropy=  -0.873844064240E+02


--------------------------------------------------------------------------------------------------------




--------------------------------------- Iteration     12(  13)  ---------------------------------------


    POTLOK:  cpu time    0.1012: real time    0.1014
    SETDIJ:  cpu time    0.0015: real time    0.0015
    EDDIAG:  cpu time    0.0939: real time    0.0941
  RMM-DIIS:  cpu time    0.3966: real time    0.3969
    ORTHCH:  cpu time    0.0103: real time    0.0103
       DOS:  cpu time    0.0021: real time    0.0021
    --------------------------------------------
      LOOP:  cpu time    0.6055: real time    0.6062

 eigenvalue-minimisations  :    56
 total energy-change (2. order) :-0.9555706E-06  (-0.9044001E-08)
 number of electron      48.0000063 magnetization 
 augmentation part        4.1494384 magnetization 

 DIPCOR: dipole corrections for dipol
 direction  1 min pos     1, direction  2 min pos     1, direction  3 min pos     1,
 dipolmoment           0.328293      0.206855     -0.107188 electrons x Angstroem
 Tr[quadrupol]        17.624771

 energy correction for charged system         0.000000 eV
 dipol+quadrupol energy correction           -0.000611 eV
 added-field ion interaction          0.003379 eV  (added to PSCEN)


  free energy =  -0.873844073796E+02  energy without entropy=  -0.873844073796E+02


--------------------------------------------------------------------------------------------------------




 average (electrostatic) potential at core
  the test charge radii are     0.5201  0.7215
  (the norm of the test charge is              1.0000)
       1 -43.7948       2 -43.4760       3 -43.8546       4 -43.7907       5 -43.3739
       6 -44.3825       7 -43.9694       8 -44.9739       9 -44.6395      10 -43.4727
      11 -43.5164      12 -44.8947      13 -80.1990      14 -80.2323      15 -80.2701
      16 -80.9536      17 -80.6118      18 -80.8619
 
 
 
 E-fermi :  -6.3844     XC(G=0):  -0.3103     alpha+bet : -0.0975


 k-point     1 :       0.0000    0.0000    0.0000
  band No.  band energies     occupation 
      1     -25.6055      2.00000
      2     -25.4074      2.00000
      3     -25.0178      2.00000
      4     -24.8275      2.00000
      5     -24.7514      2.00000
      6     -24.5302      2.00000
      7     -13.6818      2.00000
      8     -13.2578      2.00000
      9     -12.9924      2.00000
     10     -12.8607      2.00000
     11     -12.4448      2.00000
     12     -12.3554      2.00000
     13     -10.5312      2.00000
     14      -9.8212      2.00000
     15      -9.4781      2.00000
     16      -9.1442      2.00000
     17      -8.9858      2.00000
     18      -8.4603      2.00000
     19      -7.6976      2.00000
     20      -7.6495      2.00000
     21      -7.3112      2.00000
     22      -7.1496      2.00000
     23      -6.9493      2.00000
     24      -6.8757      2.00000
     25      -1.2484      0.00000
     26      -0.5253      0.00000
     27      -0.4822      0.00000
     28      -0.1429      0.00000
     29       0.0594      0.00000
     30       0.2193      0.00000
     31       0.3205      0.00000
     32       0.4357      0.00000
     33       0.4519      0.00000
     34       0.4619      0.00000
     35       0.5304      0.00000
     36       0.5534      0.00000


--------------------------------------------------------------------------------------------------------


 soft charge-density along one line, spin component           1
         0         1         2         3         4         5         6         7         8         9
 total charge-density along one line
 
 pseudopotential strength for first ion, spin component:           1
 -2.374  -4.097  -0.002   0.000  -0.001
 -4.097  -6.985  -0.007   0.000  -0.004
 -0.002  -0.007  -0.320  -0.000   0.003
  0.000   0.000  -0.000  -0.327  -0.000
 -0.001  -0.004   0.003  -0.000  -0.325
 total augmentation occupancy for first ion, spin component:           1
  3.947  -0.895   0.604  -0.042   0.313
 -0.895   0.245  -0.134   0.010  -0.066
  0.604  -0.134   0.109  -0.006   0.044
 -0.042   0.010  -0.006   0.032  -0.007
  0.313  -0.066   0.044  -0.007   0.047


------------------------ aborting loop because EDIFF is reached ----------------------------------------


 


 total charge     
 
# of ion       s       p       d       tot
------------------------------------------
    1        0.599   0.112   0.000   0.711
    2        0.585   0.112   0.000   0.697
    3        0.601   0.111   0.000   0.712
    4        0.599   0.112   0.000   0.710
    5        0.577   0.113   0.000   0.690
    6        0.625   0.113   0.000   0.738
    7        0.572   0.111   0.000   0.683
    8        0.621   0.113   0.000   0.734
    9        0.608   0.107   0.000   0.715
   10        0.532   0.091   0.000   0.623
   11        0.555   0.110   0.000   0.666
   12        0.620   0.112   0.000   0.733
   13        1.584   3.638   0.000   5.223
   14        1.586   3.630   0.000   5.216
   15        1.585   3.632   0.000   5.217
   16        1.584   3.636   0.000   5.220
   17        1.575   3.613   0.000   5.188
   18        1.582   3.638   0.000   5.220
--------------------------------------------------
tot         16.592  23.104   0.000  39.696
 
    CHARGE:  cpu time    0.0352: real time    0.0352
    FORLOC:  cpu time    0.0095: real time    0.0095
    FORNL :  cpu time    0.0833: real time    0.0833
    STRESS:  cpu time    0.2437: real time    0.2441
    FORCOR:  cpu time    0.0984: real time    0.0984
    FORHAR:  cpu time    0.0292: real time    0.0292
    MIXING:  cpu time    0.0065: real time    0.0065
    OFIELD:  cpu time    0.0001: real time    0.0001

  FORCE on cell =-STRESS in cart. coord.  units (eV):
  Direction    XX          YY          ZZ          XY          YZ          ZX
  --------------------------------------------------------------------------------------
  Alpha Z     1.00913     1.00913     1.00913
  Ewald    1724.23968   861.93487   481.51999    26.16632    60.70816   -42.85041
  Hartree  2415.03436  1583.54803  1437.59948    25.29451     7.19326     4.72288
  E(xc)    -216.69058  -216.84500  -217.87217     0.02741     0.25350    -0.28450
  Local   -4673.39893 -2962.96918 -2511.34152   -50.46200   -51.94923    24.64084
  n-local  -184.31240  -183.93399  -185.48897     0.02473     1.02889    -0.50821
  augment    40.61205    39.43553    44.43318    -0.08174    -1.08592     0.87332
  Kinetic   886.81438   871.76453   944.97343    -1.98241   -15.90407    13.58201
  Fock        0.00000     0.00000     0.00000     0.00000     0.00000     0.00000
  -------------------------------------------------------------------------------------
  Total      -6.69231    -6.05609    -5.16746    -1.01318     0.24459     0.17592
  in kB      -1.34028    -1.21287    -1.03490    -0.20291     0.04899     0.03523
  external pressure =       -1.20 kB  Pullay stress =        0.00 kB


 VOLUME and BASIS-vectors are now :
 -----------------------------------------------------------------------------
  energy-cutoff  :      400.00
  volume of cell :     8000.00
      direct lattice vectors                 reciprocal lattice vectors
    20.000001179  0.000000000  0.000000000     0.049999997 -0.000000000 -0.000000000
     0.000000000 20.000001179  0.000000000     0.000000000  0.049999997 -0.000000000
     0.000000000  0.000000000 20.000001179     0.000000000  0.000000000  0.049999997

  length of vectors
    20.000001179 20.000001179 20.000001179     0.049999997  0.049999997  0.049999997


 FORCES acting on ions
    electron-ion (+dipol)            ewald-force                    non-local-force                 convergence-correction
 -----------------------------------------------------------------------------------------------
   0.239E+02 0.693E+02 0.377E+02   -.277E+02 -.762E+02 -.373E+02   0.372E+01 0.697E+01 -.450E+00   -.121E-04 -.134E-04 0.103E-04
   -.826E+02 0.216E+01 0.540E+01   0.895E+02 -.318E+01 -.209E+01   -.685E+01 0.111E+01 -.331E+01   -.389E-05 -.286E-05 -.269E-05
   0.290E+02 -.682E+02 -.331E+02   -.325E+02 0.752E+02 0.321E+02   0.353E+01 -.702E+01 0.109E+01   -.135E-04 0.122E-04 -.114E-04
   0.273E+02 0.716E+02 0.142E+02   -.308E+02 -.764E+02 -.192E+02   0.363E+01 0.487E+01 0.504E+01   -.126E-04 -.509E-05 -.187E-04
   0.504E+01 0.251E+02 -.596E+02   -.103E+02 -.273E+02 0.645E+02   0.512E+01 0.226E+01 -.493E+01   0.407E-05 -.286E-05 0.458E-05
   -.986E+02 0.542E+02 -.981E+01   0.105E+03 -.589E+02 0.105E+02   -.663E+01 0.478E+01 -.793E+00   0.561E-05 -.587E-05 0.533E-05
   0.755E+02 -.720E+00 0.946E+00   -.818E+02 0.447E+01 0.398E+00   0.630E+01 -.374E+01 -.125E+01   0.108E-03 -.526E-04 -.202E-04
   0.275E+02 0.107E+03 0.409E+02   -.294E+02 -.115E+03 -.438E+02   0.198E+01 0.743E+01 0.289E+01   0.321E-04 0.773E-04 0.289E-04
   0.890E+02 0.539E+01 -.666E+02   -.939E+02 -.559E+01 0.719E+02   0.566E+01 0.538E+00 -.554E+01   -.706E-04 0.997E-05 0.966E-04
   -.292E+00 -.593E+02 -.947E+01   0.344E+01 0.631E+02 0.103E+02   -.434E+01 -.474E+01 -.608E+00   0.108E-03 0.955E-04 0.121E-04
   -.289E+02 -.208E+02 0.519E+02   0.329E+02 0.184E+02 -.572E+02   -.389E+01 0.223E+01 0.519E+01   -.543E-04 0.199E-04 0.650E-04
   0.534E+00 -.118E+03 -.708E+01   -.112E+00 0.127E+03 0.728E+01   -.531E+00 -.819E+01 -.120E+00   -.112E-04 -.836E-04 0.369E-05
   -.584E+02 -.983E+02 0.253E+03   0.470E+02 0.133E+03 -.275E+03   0.114E+02 -.349E+02 0.218E+02   -.168E-04 -.551E-04 0.123E-04
   -.711E+02 0.881E+02 -.260E+03   0.101E+03 -.989E+02 0.291E+03   -.301E+02 0.109E+02 -.310E+02   -.301E-04 0.599E-05 -.400E-04
   -.228E+03 -.508E+02 0.121E+02   0.222E+03 0.854E+02 -.362E+02   0.622E+01 -.348E+02 0.242E+02   0.150E-04 -.466E-04 0.751E-04
   0.101E+02 0.201E+03 0.688E+02   0.270E+02 -.184E+03 -.613E+02   -.374E+02 -.168E+02 -.759E+01   0.458E-04 0.906E-05 0.150E-05
   0.229E+03 0.153E+02 0.299E+02   -.226E+03 -.351E+02 -.629E+02   -.234E+01 0.205E+02 0.330E+02   0.438E-03 0.270E-03 -.134E-03
   0.777E+02 -.200E+03 -.840E+02   -.954E+02 0.174E+03 0.107E+03   0.176E+02 0.260E+02 -.235E+02   -.878E-04 -.524E-04 0.182E-04
 -----------------------------------------------------------------------------------------------
   0.269E+02 0.225E+02 -.142E+02   0.000E+00 0.000E+00 -.284E-13   -.269E+02 -.226E+02 0.141E+02   0.444E-03 0.180E-03 0.107E-03
 
 
 POSITION                                       TOTAL-FORCE (eV/Angst)
 -----------------------------------------------------------------------------------
     10.33352      9.63789      8.49042        -0.040697      0.123456     -0.026233
     11.65999     10.34928      8.85835         0.000431      0.090712      0.001255
     10.18791     10.29908     11.51913         0.112326     -0.070561      0.077934
     10.17228      8.84375     11.03257         0.107343     -0.002143      0.093035
     12.20455      9.77070     10.86663        -0.097284      0.077620     -0.039196
     13.64808      9.51499     10.30772        -0.048736      0.089755     -0.104439
      8.35703      8.76772      9.56502         0.022926      0.004563      0.090061
      8.96270      7.40744      9.06321         0.109817      0.092034      0.046117
      6.45799      9.96028     10.70361         0.727354      0.344997     -0.291104
      7.82197     10.77397     10.13620        -1.186158     -0.925798      0.239913
      9.91496     11.38737      9.54753         0.064624     -0.188299     -0.113752
      9.40547     12.67163     10.31742        -0.109090     -0.119871      0.080263
     10.78248     10.51451      8.42068         0.048371     -0.168899      0.087170
     10.63821      9.43465     11.67291        -0.158125      0.069170     -0.179280
     12.87442     10.09640     10.20017         0.047396     -0.178669      0.126370
      9.21908      8.28378      9.40454        -0.259845      0.000959     -0.046090
      7.14175     10.00212      9.99777         0.727291      0.670222      0.006086
      9.33442     11.69930     10.31872        -0.067943      0.090752     -0.048110
 -----------------------------------------------------------------------------------
    total drift:                                0.001908     -0.042582     -0.011776


--------------------------------------------------------------------------------------------------------



  FREE ENERGIE OF THE ION-ELECTRON SYSTEM (eV)
  ---------------------------------------------------
  free  energy   TOTEN  =       -87.38440738 eV

  energy  without entropy=      -87.38440738  energy(sigma->0) =      -87.38440738
 
 d Force =-0.8507003E-04[-0.556E-03, 0.386E-03]  d Energy =-0.8375632E-04-0.131E-05
 d Force = 0.5314030E+00[ 0.529E+00, 0.533E+00]  d Ewald  = 0.5314060E+00-0.297E-05


--------------------------------------------------------------------------------------------------------


    POTLOK:  cpu time    0.1032: real time    0.1034


--------------------------------------------------------------------------------------------------------


    WAVPRE:  cpu time    0.0132: real time    0.1404
    FEWALD:  cpu time    0.0006: real time    0.0008
    ORTHCH:  cpu time    0.0432: real time    0.0432
     LOOP+:  cpu time    9.8208: real time    9.9771


--------------------------------------- Iteration     13(   1)  ---------------------------------------


    POTLOK:  cpu time    0.1018: real time    0.1031
    SETDIJ:  cpu time    0.0019: real time    0.0019
     EDDAV:  cpu time    0.5664: real time    0.5669
       DOS:  cpu time    0.0004: real time    0.0004
    CHARGE:  cpu time    0.0351: real time    0.0352
    MIXING:  cpu time    0.0030: real time    0.0030
    --------------------------------------------
      LOOP:  cpu time    0.7085: real time    0.7106

 eigenvalue-minimisations  :    88
 total energy-change (2. order) :-0.9599301E-03  (-0.1764637E-02)
 number of electron      48.0000063 magnetization 
 augmentation part        4.1495658 magnetization 

 DIPCOR: dipole corrections for dipol
 direction  1 min pos     1, direction  2 min pos     1, direction  3 min pos     1,
 dipolmoment           0.324639      0.206251     -0.104151 electrons x Angstroem
 Tr[quadrupol]        17.652189

 energy correction for charged system         0.000000 eV
 dipol+quadrupol energy correction           -0.000599 eV
 added-field ion interaction          0.003328 eV  (added to PSCEN)


  free energy =  -0.873853663541E+02  energy without entropy=  -0.873853663541E+02


--------------------------------------------------------------------------------------------------------




--------------------------------------- Iteration     13(   2)  ---------------------------------------


    POTLOK:  cpu time    0.0996: real time    0.0998
    SETDIJ:  cpu time    0.0015: real time    0.0015
    EDDIAG:  cpu time    0.0934: real time    0.0937
  RMM-DIIS:  cpu time    0.4874: real time    0.4878
    ORTHCH:  cpu time    0.0105: real time    0.0105
       DOS:  cpu time    0.0015: real time    0.0015
    CHARGE:  cpu time    0.0346: real time    0.0349
    MIXING:  cpu time    0.0032: real time    0.0032
    --------------------------------------------
      LOOP:  cpu time    0.7317: real time    0.7329

 eigenvalue-minimisations  :    83
 total energy-change (2. order) : 0.5727643E-03  (-0.1329967E-03)
 number of electron      48.0000063 magnetization 
 augmentation part        4.1496643 magnetization 

 DIPCOR: dipole corrections for dipol
 direction  1 min pos     1, direction  2 min pos     1, direction  3 min pos     1,
 dipolmoment           0.325252      0.206488     -0.105017 electrons x Angstroem
 Tr[quadrupol]        17.645446

 energy correction for charged system         0.000000 eV
 dipol+quadrupol energy correction           -0.000601 eV
 added-field ion interaction          0.003337 eV  (added to PSCEN)


 eigenvalues of (default mixing * dielectric matrix)
  average eigenvalue GAMMA=   2.0766
  2.0766

  free energy =  -0.873847935899E+02  energy without entropy=  -0.873847935898E+02


--------------------------------------------------------------------------------------------------------




--------------------------------------- Iteration     13(   3)  ---------------------------------------


    POTLOK:  cpu time    0.0966: real time    0.0970
    SETDIJ:  cpu time    0.0015: real time    0.0015
    EDDIAG:  cpu time    0.0943: real time    0.0943
  RMM-DIIS:  cpu time    0.5699: real time    0.5714
    ORTHCH:  cpu time    0.0103: real time    0.0103
       DOS:  cpu time    0.0017: real time    0.0017
    CHARGE:  cpu time    0.0353: real time    0.0353
    MIXING:  cpu time    0.0036: real time    0.0036
    --------------------------------------------
      LOOP:  cpu time    0.8132: real time    0.8152

 eigenvalue-minimisations  :    93
 total energy-change (2. order) : 0.2470240E-03  (-0.1224176E-03)
 number of electron      48.0000063 magnetization 
 augmentation part        4.1496091 magnetization 

 DIPCOR: dipole corrections for dipol
 direction  1 min pos     1, direction  2 min pos     1, direction  3 min pos     1,
 dipolmoment           0.326262      0.206828     -0.106259 electrons x Angstroem
 Tr[quadrupol]        17.635574

 energy correction for charged system         0.000000 eV
 dipol+quadrupol energy correction           -0.000605 eV
 added-field ion interaction          0.003349 eV  (added to PSCEN)


 eigenvalues of (default mixing * dielectric matrix)
  average eigenvalue GAMMA=   1.4412
  1.1724  1.7100

  free energy =  -0.873845465658E+02  energy without entropy=  -0.873845465658E+02


--------------------------------------------------------------------------------------------------------




--------------------------------------- Iteration     13(   4)  ---------------------------------------


    POTLOK:  cpu time    0.0979: real time    0.0981
    SETDIJ:  cpu time    0.0015: real time    0.0015
    EDDIAG:  cpu time    0.0936: real time    0.0941
  RMM-DIIS:  cpu time    0.5425: real time    0.5429
    ORTHCH:  cpu time    0.0099: real time    0.0100
       DOS:  cpu time    0.0023: real time    0.0023
    CHARGE:  cpu time    0.0359: real time    0.0359
    MIXING:  cpu time    0.0038: real time    0.0038
    --------------------------------------------
      LOOP:  cpu time    0.7875: real time    0.7887

 eigenvalue-minimisations  :    85
 total energy-change (2. order) : 0.1838489E-05  (-0.1826612E-05)
 number of electron      48.0000063 magnetization 
 augmentation part        4.1496331 magnetization 

 DIPCOR: dipole corrections for dipol
 direction  1 min pos     1, direction  2 min pos     1, direction  3 min pos     1,
 dipolmoment           0.326412      0.206817     -0.106336 electrons x Angstroem
 Tr[quadrupol]        17.635025

 energy correction for charged system         0.000000 eV
 dipol+quadrupol energy correction           -0.000606 eV
 added-field ion interaction          0.003351 eV  (added to PSCEN)


 eigenvalues of (default mixing * dielectric matrix)
  average eigenvalue GAMMA=   1.6169
  0.9178  1.9665  1.9665

  free energy =  -0.873845447274E+02  energy without entropy=  -0.873845447274E+02


--------------------------------------------------------------------------------------------------------




--------------------------------------- Iteration     13(   5)  ---------------------------------------


    POTLOK:  cpu time    0.0965: real time    0.0966
    SETDIJ:  cpu time    0.0017: real time    0.0017
    EDDIAG:  cpu time    0.0935: real time    0.0935
