PROCAR lm decomposed
# of k-points:    1         # of bands:   36         # of ions:   18

 k-point     1 :    0.00000000 0.00000000 0.00000000     weight = 1.00000000

band     1 # energy  -25.64442213 # occ.  2.00000000
 
ion      s     py     pz     px    dxy    dyz    dz2    dxz  x2-y2    tot
    1  0.005  0.000  0.000  0.000  0.000  0.000  0.000  0.000  0.000  0.005
    2  0.003  0.000  0.000  0.000  0.000  0.000  0.000  0.000  0.000  0.004
    3  0.003  0.000  0.000  0.000  0.000  0.000  0.000  0.000  0.000  0.003
    4  0.004  0.000  0.000  0.000  0.000  0.000  0.000  0.000  0.000  0.004
    5  0.001  0.000  0.000  0.000  0.000  0.000  0.000  0.000  0.000  0.001
    6  0.000  0.000  0.000  0.000  0.000  0.000  0.000  0.000  0.000  0.001
    7  0.049  0.002  0.000  0.005  0.000  0.000  0.000  0.000  0.000  0.057
    8  0.051  0.009  0.001  0.000  0.000  0.000  0.000  0.000  0.000  0.061
    9  0.023  0.000  0.002  0.002  0.000  0.000  0.000  0.000  0.000  0.028
   10  0.023  0.002  0.000  0.001  0.000  0.000  0.000  0.000  0.000  0.027
   11  0.010  0.000  0.001  0.000  0.000  0.000  0.000  0.000  0.000  0.011
   12  0.010  0.002  0.000  0.000  0.000  0.000  0.000  0.000  0.000  0.012
   13  0.027  0.001  0.000  0.000  0.000  0.000  0.000  0.000  0.000  0.028
   14  0.020  0.000  0.001  0.001  0.000  0.000  0.000  0.000  0.000  0.022
   15  0.004  0.000  0.000  0.000  0.000  0.000  0.000  0.000  0.000  0.004
   16  0.386  0.002  0.000  0.013  0.000  0.000  0.000  0.000  0.000  0.402
   17  0.190  0.002  0.005  0.000  0.000  0.000  0.000  0.000  0.000  0.197
   18  0.081  0.001  0.001  0.001  0.000  0.000  0.000  0.000  0.000  0.084
tot    0.890  0.022  0.012  0.025  0.000  0.000  0.000  0.000  0.000  0.949
 
band     2 # energy  -25.33229800 # occ.  2.00000000
 
ion      s     py     pz     px    dxy    dyz    dz2    dxz  x2-y2    tot
    1  0.003  0.001  0.000  0.000  0.000  0.000  0.000  0.000  0.000  0.004
    2  0.004  0.000  0.000  0.001  0.000  0.000  0.000  0.000  0.000  0.005
    3  0.001  0.000  0.000  0.000  0.000  0.000  0.000  0.000  0.000  0.001
    4  0.000  0.000  0.000  0.000  0.000  0.000  0.000  0.000  0.000  0.000
    5  0.001  0.000  0.000  0.000  0.000  0.000  0.000  0.000  0.000  0.001
    6  0.001  0.000  0.000  0.000  0.000  0.000  0.000  0.000  0.000  0.001
    7  0.026  0.002  0.000  0.004  0.000  0.000  0.000  0.000  0.000  0.031
    8  0.035  0.006  0.001  0.000  0.000  0.000  0.000  0.000  0.000  0.042
    9  0.005  0.000  0.000  0.000  0.000  0.000  0.000  0.000  0.000  0.005
   10  0.006  0.000  0.000  0.000  0.000  0.000  0.000  0.000  0.000  0.007
   11  0.042  0.001  0.004  0.002  0.000  0.000  0.000  0.000  0.000  0.049
   12  0.052  0.010  0.000  0.000  0.000  0.000  0.000  0.000  0.000  0.062
   13  0.037  0.001  0.001  0.000  0.000  0.000  0.000  0.000  0.000  0.038
   14  0.005  0.000  0.000  0.000  0.000  0.000  0.000  0.000  0.000  0.005
   15  0.007  0.000  0.000  0.000  0.000  0.000  0.000  0.000  0.000  0.007
   16  0.251  0.002  0.000  0.008  0.000  0.000  0.000  0.000  0.000  0.262
   17  0.034  0.001  0.001  0.000  0.000  0.000  0.000  0.000  0.000  0.036
   18  0.388  0.006  0.005  0.003  0.000  0.000  0.000  0.000  0.000  0.402
tot    0.898  0.030  0.013  0.020  0.000  0.000  0.000  0.000  0.000  0.961
 
band     3 # energy  -25.19527288 # occ.  2.00000000
 
ion      s     py     pz     px    dxy    dyz    dz2    dxz  x2-y2    tot
    1  0.009  0.001  0.000  0.000  0.000  0.000  0.000  0.000  0.000  0.011
    2  0.009  0.000  0.000  0.001  0.000  0.000  0.000  0.000  0.000  0.011
    3  0.009  0.001  0.000  0.000  0.000  0.000  0.000  0.000  0.000  0.010
    4  0.009  0.001  0.001  0.000  0.000  0.000  0.000  0.000  0.000  0.010
    5  0.007  0.000  0.000  0.000  0.000  0.000  0.000  0.000  0.000  0.008
    6  0.006  0.000  0.000  0.001  0.000  0.000  0.000  0.000  0.000  0.007
    7  0.002  0.000  0.000  0.001  0.000  0.000  0.000  0.000  0.000  0.004
    8  0.006  0.001  0.000  0.000  0.000  0.000  0.000  0.000  0.000  0.008
    9  0.060  0.000  0.006  0.006  0.000  0.000  0.000  0.000  0.000  0.072
   10  0.046  0.006  0.000  0.004  0.000  0.000  0.000  0.000  0.000  0.057
   11  0.007  0.000  0.000  0.000  0.000  0.000  0.000  0.000  0.000  0.008
   12  0.007  0.001  0.000  0.000  0.000  0.000  0.000  0.000  0.000  0.008
   13  0.072  0.002  0.001  0.000  0.000  0.000  0.000  0.000  0.000  0.075
   14  0.064  0.000  0.002  0.001  0.000  0.000  0.000  0.000  0.000  0.068
   15  0.049  0.001  0.001  0.000  0.000  0.000  0.000  0.000  0.000  0.051
   16  0.045  0.000  0.000  0.001  0.000  0.000  0.000  0.000  0.000  0.046
   17  0.444  0.006  0.013  0.000  0.000  0.000  0.000  0.000  0.000  0.463
   18  0.047  0.001  0.001  0.001  0.000  0.000  0.000  0.000  0.000  0.050
tot    0.898  0.023  0.025  0.019  0.000  0.000  0.000  0.000  0.000  0.964
 
band     4 # energy  -24.95260515 # occ.  2.00000000
 
ion      s     py     pz     px    dxy    dyz    dz2    dxz  x2-y2    tot
    1  0.000  0.000  0.000  0.000  0.000  0.000  0.000  0.000  0.000  0.000
    2  0.001  0.000  0.000  0.000  0.000  0.000  0.000  0.000  0.000  0.001
    3  0.025  0.004  0.000  0.001  0.000  0.000  0.000  0.000  0.000  0.031
    4  0.026  0.002  0.002  0.001  0.000  0.000  0.000  0.000  0.000  0.031
    5  0.041  0.000  0.003  0.003  0.000  0.000  0.000  0.000  0.000  0.047
    6  0.041  0.002  0.000  0.006  0.000  0.000  0.000  0.000  0.000  0.049
    7  0.003  0.000  0.000  0.001  0.000  0.000  0.000  0.000  0.000  0.003
    8  0.005  0.001  0.000  0.000  0.000  0.000  0.000  0.000  0.000  0.005
    9  0.007  0.000  0.001  0.001  0.000  0.000  0.000  0.000  0.000  0.008
   10  0.004  0.001  0.000  0.001  0.000  0.000  0.000  0.000  0.000  0.005
   11  0.011  0.000  0.001  0.001  0.000  0.000  0.000  0.000  0.000  0.014
   12  0.017  0.003  0.000  0.000  0.000  0.000  0.000  0.000  0.000  0.021
   13  0.001  0.000  0.000  0.000  0.000  0.000  0.000  0.000  0.000  0.001
   14  0.215  0.001  0.005  0.004  0.000  0.000  0.000  0.000  0.000  0.224
   15  0.308  0.008  0.005  0.000  0.000  0.000  0.000  0.000  0.000  0.321
   16  0.030  0.000  0.000  0.001  0.000  0.000  0.000  0.000  0.000  0.032
   17  0.048  0.001  0.001  0.000  0.000  0.000  0.000  0.000  0.000  0.050
   18  0.119  0.003  0.002  0.001  0.000  0.000  0.000  0.000  0.000  0.124
tot    0.900  0.028  0.020  0.019  0.000  0.000  0.000  0.000  0.000  0.968
 
band     5 # energy  -24.75081123 # occ.  2.00000000
 
ion      s     py     pz     px    dxy    dyz    dz2    dxz  x2-y2    tot
    1  0.037  0.005  0.000  0.002  0.000  0.000  0.000  0.000  0.000  0.044
    2  0.038  0.000  0.001  0.005  0.000  0.000  0.000  0.000  0.000  0.044
    3  0.040  0.006  0.000  0.001  0.000  0.000  0.000  0.000  0.000  0.048
    4  0.039  0.003  0.003  0.001  0.000  0.000  0.000  0.000  0.000  0.046
    5  0.007  0.000  0.001  0.001  0.000  0.000  0.000  0.000  0.000  0.010
    6  0.013  0.001  0.000  0.002  0.000  0.000  0.000  0.000  0.000  0.015
    7  0.000  0.000  0.000  0.000  0.000  0.000  0.000  0.000  0.000  0.000
    8  0.000  0.000  0.000  0.000  0.000  0.000  0.000  0.000  0.000  0.000
    9  0.000  0.000  0.000  0.000  0.000  0.000  0.000  0.000  0.000  0.001
   10  0.000  0.000  0.000  0.000  0.000  0.000  0.000  0.000  0.000  0.000
   11  0.001  0.000  0.001  0.000  0.000  0.000  0.000  0.000  0.000  0.002
   12  0.004  0.001  0.000  0.000  0.000  0.000  0.000  0.000  0.000  0.005
   13  0.292  0.009  0.003  0.001  0.000  0.000  0.000  0.000  0.000  0.306
   14  0.305  0.001  0.006  0.008  0.000  0.000  0.000  0.000  0.000  0.320
   15  0.095  0.002  0.001  0.000  0.000  0.000  0.000  0.000  0.000  0.098
   16  0.000  0.000  0.000  0.000  0.000  0.000  0.000  0.000  0.000  0.000
   17  0.003  0.000  0.000  0.000  0.000  0.000  0.000  0.000  0.000  0.003
   18  0.029  0.001  0.000  0.000  0.000  0.000  0.000  0.000  0.000  0.030
tot    0.903  0.030  0.016  0.023  0.000  0.000  0.000  0.000  0.000  0.972
 
band     6 # energy  -24.51118493 # occ.  2.00000000
 
ion      s     py     pz     px    dxy    dyz    dz2    dxz  x2-y2    tot
    1  0.037  0.006  0.000  0.002  0.000  0.000  0.000  0.000  0.000  0.045
    2  0.030  0.000  0.001  0.006  0.000  0.000  0.000  0.000  0.000  0.037
    3  0.013  0.002  0.000  0.000  0.000  0.000  0.000  0.000  0.000  0.016
    4  0.014  0.001  0.001  0.001  0.000  0.000  0.000  0.000  0.000  0.016
    5  0.025  0.000  0.002  0.003  0.000  0.000  0.000  0.000  0.000  0.032
    6  0.038  0.002  0.000  0.005  0.000  0.000  0.000  0.000  0.000  0.045
    7  0.001  0.000  0.000  0.000  0.000  0.000  0.000  0.000  0.000  0.002
    8  0.002  0.000  0.000  0.000  0.000  0.000  0.000  0.000  0.000  0.002
    9  0.001  0.000  0.000  0.000  0.000  0.000  0.000  0.000  0.000  0.001
   10  0.000  0.000  0.000  0.000  0.000  0.000  0.000  0.000  0.000  0.000
   11  0.002  0.000  0.001  0.001  0.000  0.000  0.000  0.000  0.000  0.004
   12  0.010  0.002  0.000  0.000  0.000  0.000  0.000  0.000  0.000  0.011
   13  0.292  0.009  0.002  0.001  0.000  0.000  0.000  0.000  0.000  0.304
   14  0.107  0.000  0.002  0.003  0.000  0.000  0.000  0.000  0.000  0.113
   15  0.261  0.008  0.004  0.001  0.000  0.000  0.000  0.000  0.000  0.273
   16  0.012  0.000  0.000  0.001  0.000  0.000  0.000  0.000  0.000  0.013
   17  0.004  0.000  0.000  0.000  0.000  0.000  0.000  0.000  0.000  0.004
   18  0.061  0.002  0.000  0.000  0.000  0.000  0.000  0.000  0.000  0.064
tot    0.910  0.034  0.015  0.024  0.000  0.000  0.000  0.000  0.000  0.984
 
band     7 # energy  -13.70687748 # occ.  2.00000000
 
ion      s     py     pz     px    dxy    dyz    dz2    dxz  x2-y2    tot
    1  0.002  0.000  0.000  0.000  0.000  0.000  0.000  0.000  0.000  0.002
    2  0.003  0.000  0.000  0.000  0.000  0.000  0.000  0.000  0.000  0.004
    3  0.000  0.000  0.000  0.000  0.000  0.000  0.000  0.000  0.000  0.000
    4  0.001  0.000  0.000  0.000  0.000  0.000  0.000  0.000  0.000  0.001
    5  0.000  0.000  0.000  0.000  0.000  0.000  0.000  0.000  0.000  0.000
    6  0.000  0.000  0.000  0.000  0.000  0.000  0.000  0.000  0.000  0.000
    7  0.080  0.000  0.000  0.007  0.000  0.000  0.000  0.000  0.000  0.087
    8  0.085  0.006  0.001  0.002  0.000  0.000  0.000  0.000  0.000  0.095
    9  0.070  0.000  0.005  0.002  0.000  0.000  0.000  0.000  0.000  0.077
   10  0.041  0.003  0.001  0.000  0.000  0.000  0.000  0.000  0.000  0.045
   11  0.009  0.000  0.000  0.001  0.000  0.000  0.000  0.000  0.000  0.011
   12  0.022  0.002  0.000  0.000  0.000  0.000  0.000  0.000  0.000  0.024
   13  0.000  0.000  0.000  0.008  0.000  0.000  0.000  0.000  0.000  0.009
   14  0.001  0.000  0.000  0.000  0.000  0.000  0.000  0.000  0.000  0.002
   15  0.000  0.000  0.000  0.001  0.000  0.000  0.000  0.000  0.000  0.001
   16  0.000  0.209  0.027  0.028  0.000  0.000  0.000  0.000  0.000  0.264
   17  0.000  0.012  0.035  0.144  0.000  0.000  0.000  0.000  0.000  0.191
   18  0.000  0.051  0.007  0.000  0.000  0.000  0.000  0.000  0.000  0.058
tot    0.315  0.284  0.077  0.195  0.000  0.000  0.000  0.000  0.000  0.871
 
band     8 # energy  -13.26583313 # occ.  2.00000000
 
ion      s     py     pz     px    dxy    dyz    dz2    dxz  x2-y2    tot
    1  0.002  0.000  0.000  0.000  0.000  0.000  0.000  0.000  0.000  0.003
    2  0.000  0.000  0.000  0.000  0.000  0.000  0.000  0.000  0.000  0.000
    3  0.011  0.000  0.000  0.000  0.000  0.000  0.000  0.000  0.000  0.012
    4  0.011  0.000  0.000  0.000  0.000  0.000  0.000  0.000  0.000  0.012
    5  0.001  0.000  0.000  0.000  0.000  0.000  0.000  0.000  0.000  0.001
    6  0.001  0.000  0.000  0.000  0.000  0.000  0.000  0.000  0.000  0.001
    7  0.043  0.000  0.000  0.004  0.000  0.000  0.000  0.000  0.000  0.048
    8  0.054  0.004  0.001  0.001  0.000  0.000  0.000  0.000  0.000  0.060
    9  0.010  0.000  0.001  0.000  0.000  0.000  0.000  0.000  0.000  0.011
   10  0.023  0.001  0.000  0.000  0.000  0.000  0.000  0.000  0.000  0.025
   11  0.067  0.000  0.004  0.002  0.000  0.000  0.000  0.000  0.000  0.074
   12  0.096  0.010  0.000  0.000  0.000  0.000  0.000  0.000  0.000  0.106
   13  0.000  0.007  0.002  0.001  0.000  0.000  0.000  0.000  0.000  0.010
   14  0.000  0.029  0.002  0.000  0.000  0.000  0.000  0.000  0.000  0.031
   15  0.000  0.000  0.000  0.002  0.000  0.000  0.000  0.000  0.000  0.002
   16  0.000  0.130  0.021  0.015  0.000  0.000  0.000  0.000  0.000  0.165
   17  0.000  0.028  0.002  0.023  0.000  0.000  0.000  0.000  0.000  0.052
   18  0.000  0.221  0.043  0.013  0.000  0.000  0.000  0.000  0.000  0.277
tot    0.321  0.429  0.077  0.063  0.000  0.000  0.000  0.000  0.000  0.890
 
band     9 # energy  -13.02556389 # occ.  2.00000000
 
ion      s     py     pz     px    dxy    dyz    dz2    dxz  x2-y2    tot
    1  0.003  0.000  0.000  0.000  0.000  0.000  0.000  0.000  0.000  0.004
    2  0.013  0.000  0.000  0.001  0.000  0.000  0.000  0.000  0.000  0.014
    3  0.001  0.000  0.000  0.000  0.000  0.000  0.000  0.000  0.000  0.001
    4  0.000  0.000  0.000  0.000  0.000  0.000  0.000  0.000  0.000  0.000
    5  0.004  0.000  0.000  0.000  0.000  0.000  0.000  0.000  0.000  0.004
    6  0.007  0.000  0.000  0.000  0.000  0.000  0.000  0.000  0.000  0.007
    7  0.010  0.000  0.000  0.001  0.000  0.000  0.000  0.000  0.000  0.011
    8  0.016  0.001  0.000  0.000  0.000  0.000  0.000  0.000  0.000  0.018
    9  0.078  0.001  0.006  0.002  0.000  0.000  0.000  0.000  0.000  0.086
   10  0.087  0.005  0.001  0.002  0.000  0.000  0.000  0.000  0.000  0.096
   11  0.063  0.000  0.003  0.002  0.000  0.000  0.000  0.000  0.000  0.068
   12  0.037  0.003  0.000  0.001  0.000  0.000  0.000  0.000  0.000  0.041
   13  0.000  0.000  0.000  0.031  0.000  0.000  0.000  0.000  0.000  0.032
   14  0.000  0.000  0.000  0.001  0.000  0.000  0.000  0.000  0.000  0.002
   15  0.000  0.001  0.000  0.017  0.000  0.000  0.000  0.000  0.000  0.018
   16  0.000  0.041  0.005  0.003  0.000  0.000  0.000  0.000  0.000  0.049
   17  0.000  0.079  0.030  0.168  0.000  0.000  0.000  0.000  0.000  0.276
   18  0.000  0.083  0.042  0.042  0.000  0.000  0.000  0.000  0.000  0.167
tot    0.319  0.215  0.088  0.272  0.000  0.000  0.000  0.000  0.000  0.895
 
band    10 # energy  -12.92608116 # occ.  2.00000000
 
ion      s     py     pz     px    dxy    dyz    dz2    dxz  x2-y2    tot
    1  0.029  0.003  0.000  0.000  0.000  0.000  0.000  0.000  0.000  0.032
    2  0.033  0.000  0.000  0.001  0.000  0.000  0.000  0.000  0.000  0.035
    3  0.001  0.000  0.000  0.000  0.000  0.000  0.000  0.000  0.000  0.001
    4  0.006  0.000  0.001  0.000  0.000  0.000  0.000  0.000  0.000  0.007
    5  0.095  0.003  0.005  0.001  0.000  0.000  0.000  0.000  0.000  0.105
    6  0.124  0.007  0.001  0.006  0.000  0.000  0.000  0.000  0.000  0.137
    7  0.012  0.000  0.000  0.001  0.000  0.000  0.000  0.000  0.000  0.013
    8  0.006  0.000  0.000  0.000  0.000  0.000  0.000  0.000  0.000  0.006
    9  0.003  0.000  0.000  0.000  0.000  0.000  0.000  0.000  0.000  0.003
   10  0.006  0.000  0.000  0.000  0.000  0.000  0.000  0.000  0.000  0.007
   11  0.002  0.000  0.000  0.000  0.000  0.000  0.000  0.000  0.000  0.002
   12  0.001  0.000  0.000  0.000  0.000  0.000  0.000  0.000  0.000  0.001
   13  0.001  0.020  0.010  0.064  0.000  0.000  0.000  0.000  0.000  0.094
   14  0.000  0.010  0.000  0.009  0.000  0.000  0.000  0.000  0.000  0.020
   15  0.000  0.019  0.022  0.326  0.000  0.000  0.000  0.000  0.000  0.367
   16  0.000  0.015  0.004  0.012  0.000  0.000  0.000  0.000  0.000  0.030
   17  0.000  0.009  0.001  0.007  0.000  0.000  0.000  0.000  0.000  0.016
   18  0.000  0.002  0.001  0.003  0.000  0.000  0.000  0.000  0.000  0.006
tot    0.319  0.089  0.044  0.431  0.000  0.000  0.000  0.000  0.000  0.883
 
band    11 # energy  -12.51623394 # occ.  2.00000000
 
ion      s     py     pz     px    dxy    dyz    dz2    dxz  x2-y2    tot
    1  0.000  0.000  0.000  0.000  0.000  0.000  0.000  0.000  0.000  0.000
    2  0.001  0.000  0.000  0.000  0.000  0.000  0.000  0.000  0.000  0.001
    3  0.141  0.008  0.002  0.005  0.000  0.000  0.000  0.000  0.000  0.156
    4  0.133  0.001  0.006  0.006  0.000  0.000  0.000  0.000  0.000  0.147
    5  0.008  0.000  0.001  0.000  0.000  0.000  0.000  0.000  0.000  0.008
    6  0.007  0.000  0.000  0.000  0.000  0.000  0.000  0.000  0.000  0.008
    7  0.009  0.000  0.000  0.000  0.000  0.000  0.000  0.000  0.000  0.010
    8  0.001  0.000  0.000  0.000  0.000  0.000  0.000  0.000  0.000  0.001
    9  0.000  0.000  0.000  0.000  0.000  0.000  0.000  0.000  0.000  0.000
   10  0.001  0.000  0.000  0.000  0.000  0.000  0.000  0.000  0.000  0.001
   11  0.009  0.000  0.000  0.000  0.000  0.000  0.000  0.000  0.000  0.010
   12  0.004  0.000  0.000  0.000  0.000  0.000  0.000  0.000  0.000  0.004
   13  0.000  0.000  0.000  0.002  0.000  0.000  0.000  0.000  0.000  0.003
   14  0.000  0.412  0.051  0.000  0.000  0.000  0.000  0.000  0.000  0.463
   15  0.000  0.000  0.003  0.021  0.000  0.000  0.000  0.000  0.000  0.024
   16  0.000  0.005  0.001  0.019  0.000  0.000  0.000  0.000  0.000  0.024
   17  0.000  0.002  0.000  0.000  0.000  0.000  0.000  0.000  0.000  0.002
   18  0.000  0.007  0.017  0.001  0.000  0.000  0.000  0.000  0.000  0.025
tot    0.314  0.436  0.081  0.057  0.000  0.000  0.000  0.000  0.000  0.887
 
band    12 # energy  -12.41373510 # occ.  2.00000000
 
ion      s     py     pz     px    dxy    dyz    dz2    dxz  x2-y2    tot
    1  0.120  0.011  0.000  0.001  0.000  0.000  0.000  0.000  0.000  0.131
    2  0.102  0.003  0.003  0.006  0.000  0.000  0.000  0.000  0.000  0.114
    3  0.002  0.000  0.000  0.000  0.000  0.000  0.000  0.000  0.000  0.002
    4  0.007  0.000  0.001  0.000  0.000  0.000  0.000  0.000  0.000  0.008
    5  0.050  0.001  0.002  0.002  0.000  0.000  0.000  0.000  0.000  0.054
    6  0.024  0.002  0.001  0.001  0.000  0.000  0.000  0.000  0.000  0.027
    7  0.004  0.000  0.000  0.000  0.000  0.000  0.000  0.000  0.000  0.004
    8  0.000  0.000  0.000  0.000  0.000  0.000  0.000  0.000  0.000  0.000
    9  0.000  0.000  0.000  0.000  0.000  0.000  0.000  0.000  0.000  0.000
   10  0.000  0.000  0.000  0.000  0.000  0.000  0.000  0.000  0.000  0.000
   11  0.003  0.000  0.000  0.000  0.000  0.000  0.000  0.000  0.000  0.003
   12  0.002  0.000  0.000  0.000  0.000  0.000  0.000  0.000  0.000  0.002
   13  0.000  0.097  0.020  0.261  0.000  0.000  0.000  0.000  0.000  0.379
   14  0.000  0.013  0.001  0.006  0.000  0.000  0.000  0.000  0.000  0.019
   15  0.000  0.000  0.043  0.080  0.000  0.000  0.000  0.000  0.000  0.123
   16  0.000  0.000  0.004  0.009  0.000  0.000  0.000  0.000  0.000  0.014
   17  0.000  0.001  0.000  0.000  0.000  0.000  0.000  0.000  0.000  0.001
   18  0.000  0.003  0.002  0.002  0.000  0.000  0.000  0.000  0.000  0.007
tot    0.312  0.131  0.077  0.368  0.000  0.000  0.000  0.000  0.000  0.887
 
band    13 # energy  -10.50289311 # occ.  2.00000000
 
ion      s     py     pz     px    dxy    dyz    dz2    dxz  x2-y2    tot
    1  0.003  0.000  0.000  0.000  0.000  0.000  0.000  0.000  0.000  0.004
    2  0.012  0.000  0.000  0.000  0.000  0.000  0.000  0.000  0.000  0.013
    3  0.009  0.000  0.000  0.000  0.000  0.000  0.000  0.000  0.000  0.009
    4  0.003  0.000  0.000  0.000  0.000  0.000  0.000  0.000  0.000  0.004
    5  0.002  0.000  0.000  0.000  0.000  0.000  0.000  0.000  0.000  0.002
    6  0.001  0.000  0.000  0.000  0.000  0.000  0.000  0.000  0.000  0.002
    7  0.015  0.001  0.000  0.000  0.000  0.000  0.000  0.000  0.000  0.016
    8  0.022  0.002  0.000  0.001  0.000  0.000  0.000  0.000  0.000  0.024
    9  0.018  0.001  0.000  0.001  0.000  0.000  0.000  0.000  0.000  0.020
   10  0.008  0.000  0.001  0.000  0.000  0.000  0.000  0.000  0.000  0.009
   11  0.015  0.001  0.000  0.000  0.000  0.000  0.000  0.000  0.000  0.016
   12  0.012  0.001  0.001  0.000  0.000  0.000  0.000  0.000  0.000  0.014
   13  0.009  0.030  0.004  0.023  0.000  0.000  0.000  0.000  0.000  0.065
   14  0.011  0.007  0.010  0.023  0.000  0.000  0.000  0.000  0.000  0.050
   15  0.001  0.004  0.011  0.001  0.000  0.000  0.000  0.000  0.000  0.018
   16  0.022  0.035  0.008  0.120  0.000  0.000  0.000  0.000  0.000  0.186
   17  0.016  0.039  0.065  0.010  0.000  0.000  0.000  0.000  0.000  0.130
   18  0.013  0.044  0.044  0.032  0.000  0.000  0.000  0.000  0.000  0.132
tot    0.192  0.164  0.144  0.213  0.000  0.000  0.000  0.000  0.000  0.713
 
band    14 # energy   -9.70992317 # occ.  2.00000000
 
ion      s     py     pz     px    dxy    dyz    dz2    dxz  x2-y2    tot
    1  0.001  0.001  0.000  0.001  0.000  0.000  0.000  0.000  0.000  0.003
    2  0.000  0.000  0.000  0.000  0.000  0.000  0.000  0.000  0.000  0.000
    3  0.005  0.001  0.000  0.001  0.000  0.000  0.000  0.000  0.000  0.006
    4  0.001  0.000  0.001  0.000  0.000  0.000  0.000  0.000  0.000  0.002
    5  0.001  0.000  0.000  0.000  0.000  0.000  0.000  0.000  0.000  0.001
    6  0.000  0.000  0.000  0.000  0.000  0.000  0.000  0.000  0.000  0.000
    7  0.022  0.003  0.000  0.000  0.000  0.000  0.000  0.000  0.000  0.025
    8  0.016  0.001  0.000  0.002  0.000  0.000  0.000  0.000  0.000  0.020
    9  0.005  0.000  0.000  0.000  0.000  0.000  0.000  0.000  0.000  0.005
   10  0.000  0.001  0.001  0.001  0.000  0.000  0.000  0.000  0.000  0.003
   11  0.024  0.002  0.000  0.000  0.000  0.000  0.000  0.000  0.000  0.026
   12  0.029  0.002  0.001  0.001  0.000  0.000  0.000  0.000  0.000  0.033
   13  0.001  0.013  0.011  0.000  0.000  0.000  0.000  0.000  0.000  0.026
   14  0.001  0.023  0.000  0.002  0.000  0.000  0.000  0.000  0.000  0.025
   15  0.001  0.002  0.004  0.000  0.000  0.000  0.000  0.000  0.000  0.007
   16  0.025  0.022  0.003  0.195  0.000  0.000  0.000  0.000  0.000  0.245
   17  0.004  0.010  0.013  0.002  0.000  0.000  0.000  0.000  0.000  0.029
   18  0.036  0.099  0.081  0.091  0.000  0.000  0.000  0.000  0.000  0.307
tot    0.171  0.181  0.115  0.296  0.000  0.000  0.000  0.000  0.000  0.762
 
band    15 # energy   -9.58030590 # occ.  2.00000000
 
ion      s     py     pz     px    dxy    dyz    dz2    dxz  x2-y2    tot
    1  0.017  0.000  0.000  0.001  0.000  0.000  0.000  0.000  0.000  0.019
    2  0.005  0.001  0.000  0.000  0.000  0.000  0.000  0.000  0.000  0.006
    3  0.005  0.000  0.000  0.000  0.000  0.000  0.000  0.000  0.000  0.006
    4  0.009  0.001  0.000  0.000  0.000  0.000  0.000  0.000  0.000  0.010
    5  0.011  0.000  0.000  0.001  0.000  0.000  0.000  0.000  0.000  0.012
    6  0.010  0.000  0.001  0.001  0.000  0.000  0.000  0.000  0.000  0.012
    7  0.000  0.001  0.000  0.003  0.000  0.000  0.000  0.000  0.000  0.004
    8  0.005  0.000  0.000  0.000  0.000  0.000  0.000  0.000  0.000  0.005
    9  0.020  0.002  0.000  0.002  0.000  0.000  0.000  0.000  0.000  0.023
   10  0.024  0.000  0.001  0.002  0.000  0.000  0.000  0.000  0.000  0.027
   11  0.000  0.000  0.001  0.000  0.000  0.000  0.000  0.000  0.000  0.001
   12  0.001  0.000  0.000  0.000  0.000  0.000  0.000  0.000  0.000  0.001
   13  0.015  0.086  0.005  0.001  0.000  0.000  0.000  0.000  0.000  0.107
   14  0.008  0.000  0.019  0.054  0.000  0.000  0.000  0.000  0.000  0.080
   15  0.013  0.041  0.056  0.005  0.000  0.000  0.000  0.000  0.000  0.114
   16  0.004  0.013  0.005  0.002  0.000  0.000  0.000  0.000  0.000  0.023
   17  0.029  0.124  0.126  0.002  0.000  0.000  0.000  0.000  0.000  0.281
   18  0.002  0.004  0.006  0.006  0.000  0.000  0.000  0.000  0.000  0.018
tot    0.178  0.273  0.220  0.078  0.000  0.000  0.000  0.000  0.000  0.749
 
band    16 # energy   -9.10576207 # occ.  2.00000000
 
ion      s     py     pz     px    dxy    dyz    dz2    dxz  x2-y2    tot
    1  0.005  0.000  0.000  0.001  0.000  0.000  0.000  0.000  0.000  0.007
    2  0.021  0.000  0.001  0.003  0.000  0.000  0.000  0.000  0.000  0.025
    3  0.017  0.003  0.000  0.000  0.000  0.000  0.000  0.000  0.000  0.020
    4  0.021  0.003  0.001  0.000  0.000  0.000  0.000  0.000  0.000  0.024
    5  0.003  0.001  0.000  0.000  0.000  0.000  0.000  0.000  0.000  0.005
    6  0.015  0.000  0.000  0.001  0.000  0.000  0.000  0.000  0.000  0.016
    7  0.003  0.001  0.000  0.000  0.000  0.000  0.000  0.000  0.000  0.004
    8  0.003  0.000  0.000  0.000  0.000  0.000  0.000  0.000  0.000  0.004
    9  0.003  0.000  0.000  0.000  0.000  0.000  0.000  0.000  0.000  0.003
   10  0.004  0.000  0.000  0.001  0.000  0.000  0.000  0.000  0.000  0.005
   11  0.000  0.000  0.001  0.000  0.000  0.000  0.000  0.000  0.000  0.001
   12  0.004  0.000  0.000  0.000  0.000  0.000  0.000  0.000  0.000  0.004
   13  0.014  0.069  0.015  0.061  0.000  0.000  0.000  0.000  0.000  0.159
   14  0.021  0.004  0.047  0.170  0.000  0.000  0.000  0.000  0.000  0.242
   15  0.018  0.063  0.008  0.009  0.000  0.000  0.000  0.000  0.000  0.097
   16  0.004  0.011  0.013  0.042  0.000  0.000  0.000  0.000  0.000  0.070
   17  0.006  0.017  0.032  0.001  0.000  0.000  0.000  0.000  0.000  0.055
   18  0.005  0.012  0.000  0.000  0.000  0.000  0.000  0.000  0.000  0.017
tot    0.167  0.184  0.119  0.291  0.000  0.000  0.000  0.000  0.000  0.761
 
band    17 # energy   -9.04229689 # occ.  2.00000000
 
ion      s     py     pz     px    dxy    dyz    dz2    dxz  x2-y2    tot
    1  0.014  0.001  0.000  0.001  0.000  0.000  0.000  0.000  0.000  0.016
    2  0.003  0.001  0.000  0.000  0.000  0.000  0.000  0.000  0.000  0.004
    3  0.010  0.000  0.001  0.000  0.000  0.000  0.000  0.000  0.000  0.011
    4  0.008  0.001  0.000  0.000  0.000  0.000  0.000  0.000  0.000  0.009
    5  0.023  0.000  0.000  0.003  0.000  0.000  0.000  0.000  0.000  0.027
    6  0.013  0.000  0.001  0.002  0.000  0.000  0.000  0.000  0.000  0.016
    7  0.005  0.001  0.001  0.001  0.000  0.000  0.000  0.000  0.000  0.007
    8  0.001  0.000  0.000  0.001  0.000  0.000  0.000  0.000  0.000  0.002
    9  0.006  0.001  0.000  0.000  0.000  0.000  0.000  0.000  0.000  0.007
   10  0.007  0.000  0.000  0.001  0.000  0.000  0.000  0.000  0.000  0.009
   11  0.005  0.001  0.000  0.001  0.000  0.000  0.000  0.000  0.000  0.007
   12  0.001  0.000  0.001  0.000  0.000  0.000  0.000  0.000  0.000  0.002
   13  0.013  0.063  0.008  0.000  0.000  0.000  0.000  0.000  0.000  0.086
   14  0.019  0.008  0.052  0.024  0.000  0.000  0.000  0.000  0.000  0.104
   15  0.020  0.091  0.128  0.001  0.000  0.000  0.000  0.000  0.000  0.239
   16  0.002  0.002  0.017  0.048  0.000  0.000  0.000  0.000  0.000  0.069
   17  0.009  0.043  0.041  0.000  0.000  0.000  0.000  0.000  0.000  0.093
   18  0.002  0.005  0.050  0.002  0.000  0.000  0.000  0.000  0.000  0.059
tot    0.162  0.217  0.302  0.085  0.000  0.000  0.000  0.000  0.000  0.766
 
band    18 # energy   -8.44017443 # occ.  2.00000000
 
ion      s     py     pz     px    dxy    dyz    dz2    dxz  x2-y2    tot
    1  0.011  0.000  0.000  0.003  0.000  0.000  0.000  0.000  0.000  0.014
    2  0.013  0.001  0.000  0.003  0.000  0.000  0.000  0.000  0.000  0.016
    3  0.007  0.001  0.001  0.000  0.000  0.000  0.000  0.000  0.000  0.009
    4  0.007  0.002  0.000  0.000  0.000  0.000  0.000  0.000  0.000  0.009
    5  0.008  0.000  0.000  0.001  0.000  0.000  0.000  0.000  0.000  0.010
    6  0.010  0.000  0.000  0.001  0.000  0.000  0.000  0.000  0.000  0.012
    7  0.004  0.001  0.000  0.000  0.000  0.000  0.000  0.000  0.000  0.006
    8  0.004  0.000  0.000  0.001  0.000  0.000  0.000  0.000  0.000  0.005
    9  0.001  0.000  0.000  0.000  0.000  0.000  0.000  0.000  0.000  0.002
   10  0.004  0.001  0.000  0.001  0.000  0.000  0.000  0.000  0.000  0.006
   11  0.005  0.001  0.001  0.000  0.000  0.000  0.000  0.000  0.000  0.008
   12  0.004  0.000  0.000  0.001  0.000  0.000  0.000  0.000  0.000  0.005
   13  0.016  0.120  0.041  0.022  0.000  0.000  0.000  0.000  0.000  0.198
   14  0.012  0.006  0.069  0.031  0.000  0.000  0.000  0.000  0.000  0.117
   15  0.016  0.101  0.026  0.000  0.000  0.000  0.000  0.000  0.000  0.142
   16  0.008  0.006  0.000  0.060  0.000  0.000  0.000  0.000  0.000  0.074
   17  0.003  0.021  0.028  0.004  0.000  0.000  0.000  0.000  0.000  0.057
   18  0.007  0.012  0.019  0.060  0.000  0.000  0.000  0.000  0.000  0.098
tot    0.140  0.274  0.186  0.187  0.000  0.000  0.000  0.000  0.000  0.787
 
band    19 # energy   -7.69395109 # occ.  2.00000000
 
ion      s     py     pz     px    dxy    dyz    dz2    dxz  x2-y2    tot
    1  0.001  0.001  0.000  0.001  0.000  0.000  0.000  0.000  0.000  0.003
    2  0.000  0.000  0.000  0.000  0.000  0.000  0.000  0.000  0.000  0.000
    3  0.000  0.000  0.000  0.000  0.000  0.000  0.000  0.000  0.000  0.001
    4  0.003  0.002  0.001  0.001  0.000  0.000  0.000  0.000  0.000  0.006
    5  0.000  0.000  0.000  0.000  0.000  0.000  0.000  0.000  0.000  0.000
    6  0.000  0.000  0.000  0.000  0.000  0.000  0.000  0.000  0.000  0.000
    7  0.000  0.000  0.008  0.000  0.000  0.000  0.000  0.000  0.000  0.008
    8  0.000  0.001  0.007  0.000  0.000  0.000  0.000  0.000  0.000  0.008
    9  0.000  0.001  0.001  0.001  0.000  0.000  0.000  0.000  0.000  0.002
   10  0.000  0.001  0.000  0.000  0.000  0.000  0.000  0.000  0.000  0.002
   11  0.000  0.000  0.000  0.000  0.000  0.000  0.000  0.000  0.000  0.000
   12  0.000  0.000  0.000  0.000  0.000  0.000  0.000  0.000  0.000  0.000
   13  0.000  0.021  0.000  0.000  0.000  0.000  0.000  0.000  0.000  0.021
   14  0.001  0.001  0.028  0.015  0.000  0.000  0.000  0.000  0.000  0.045
   15  0.000  0.001  0.001  0.000  0.000  0.000  0.000  0.000  0.000  0.002
   16  0.000  0.069  0.419  0.006  0.000  0.000  0.000  0.000  0.000  0.494
   17  0.000  0.037  0.031  0.044  0.000  0.000  0.000  0.000  0.000  0.111