<?xml version="1.0" encoding="ISO-8859-1"?>
<modeling>
 <generator>
  <i name="program" type="string">vasp </i>
  <i name="version" type="string">5.4.4.18Apr17-6-g9f103f2a35  </i>
  <i name="subversion" type="string">(build Sep 04 2019 18:34:39) complex            parallel </i>
  <i name="platform" type="string">LinuxIFC </i>
  <i name="date" type="string">2012 06 17 </i>
  <i name="time" type="string">18:27:56 </i>
 </generator>
 <incar>
  <i type="string" name="SYSTEM"> VaspCalc</i>
  <i type="int" name="ISTART">     1</i>
  <i type="string" name="PREC">med</i>
  <i type="string" name="ALGO"> Fast</i>
  <i type="int" name="ISPIN">     1</i>
  <i type="int" name="NELM">   400</i>
  <i type="int" name="NELMIN">     4</i>
  <i type="int" name="IBRION">    -1</i>
  <i name="EDIFF">      0.00000100</i>
  <i type="int" name="NSW">   400</i>
  <i type="int" name="ISMEAR">     0</i>
  <i name="SIGMA">      0.10000000</i>
  <i type="int" name="NWRITE">     1</i>
  <i type="logical" name="LWAVE"> F  </i>
  <i type="logical" name="LCHARG"> F  </i>
  <i type="int" name="LORBIT">    11</i>
  <v type="int" name="KPOINT_BSE">    -1     0     0     0</v>
  <i type="int" name="NELM">   400</i>
  <i type="logical" name="LDIPOL"> T  </i>
  <i type="int" name="IDIPOL">     4</i>
  <v name="DIPOL">      0.50000000      0.50000000      0.50000000</v>
 </incar>
 <structure name="primitive_cell" >
  <crystal>
   <varray name="basis" >
    <v>      20.00000000       0.00000000       0.00000000 </v>
    <v>       0.00000000      20.00000000       0.00000000 </v>
    <v>       0.00000000       0.00000000      20.00000000 </v>
   </varray>
   <i name="volume">   8000.00000000 </i>
   <varray name="rec_basis" >
    <v>       0.05000000       0.00000000       0.00000000 </v>
    <v>       0.00000000       0.05000000       0.00000000 </v>
    <v>       0.00000000       0.00000000       0.05000000 </v>
   </varray>
  </crystal>
  <varray name="positions" >
   <v>      -0.48303956       0.48231771       0.42450384 </v>
   <v>      -0.46068766      -0.47473274       0.42129739 </v>
   <v>      -0.41749591      -0.48250704       0.44267829 </v>
   <v>       0.46046439       0.41406651       0.47018254 </v>
   <v>       0.49542619      -0.43038154       0.47781379 </v>
   <v>       0.41832169       0.43807436       0.47809879 </v>
   <v>      -0.49118241       0.44253796      -0.44805986 </v>
   <v>       0.44818364       0.37077486       0.45331244 </v>
   <v>       0.46704339      -0.41480074      -0.48442976 </v>
   <v>      -0.38932896       0.48867021      -0.45702956 </v>
   <v>      -0.35631286      -0.49554419      -0.48963226 </v>
   <v>      -0.49041156      -0.48551269      -0.42400856 </v>
   <v>      -0.46851466       0.47185586      -0.41671716 </v>
   <v>       0.39097829      -0.46184444      -0.49368261 </v>
   <v>       0.36007474      -0.49887749       0.49787849 </v>
   <v>       0.47029514      -0.36684739      -0.48418125 </v>
   <v>      -0.31797336       0.47599011      -0.48460121 </v>
   <v>       0.32000000       0.49750456      -0.46229341 </v>
  </varray>
 </structure>
 <varray name="primitive_index" >
  <v type="int" >        1 </v>
  <v type="int" >       13 </v>
  <v type="int" >        2 </v>
  <v type="int" >       16 </v>
  <v type="int" >       11 </v>
  <v type="int" >        7 </v>
  <v type="int" >        4 </v>
  <v type="int" >        8 </v>
  <v type="int" >       18 </v>
  <v type="int" >        5 </v>
  <v type="int" >       15 </v>
  <v type="int" >        3 </v>
  <v type="int" >       14 </v>
  <v type="int" >       10 </v>
  <v type="int" >       17 </v>
  <v type="int" >       12 </v>
  <v type="int" >        6 </v>
  <v type="int" >        9 </v>
 </varray>
 <kpoints>
  <generation param="Gamma">
   <v type="int" name="divisions">       1        1        1 </v>
   <v name="usershift">      0.00000000       0.00000000       0.00000000 </v>
   <v name="genvec1">      1.00000000       0.00000000       0.00000000 </v>
   <v name="genvec2">      0.00000000       1.00000000       0.00000000 </v>
   <v name="genvec3">      0.00000000       0.00000000       1.00000000 </v>
   <v name="shift">      0.00000000       0.00000000       0.00000000 </v>
  </generation>
  <varray name="kpointlist" >
   <v>       0.00000000       0.00000000       0.00000000 </v>
  </varray>
  <varray name="weights" >
   <v>       1.00000000 </v>
  </varray>
 </kpoints>
 <parameters>
  <separator name="general" >
   <i type="string" name="SYSTEM">VaspCalc</i>
   <i type="logical" name="LCOMPAT"> F  </i>
  </separator>
  <separator name="electronic" >
   <i type="string" name="PREC">med</i>
   <i name="ENMAX">    400.00000000</i>
   <i name="ENAUG">    605.39200000</i>
   <i name="EDIFF">      0.00000100</i>
   <i type="int" name="IALGO">    68</i>
   <i type="int" name="IWAVPR">    10</i>
   <i type="int" name="NBANDS">    36</i>
   <i name="NELECT">     48.00000000</i>
   <i type="int" name="TURBO">     0</i>
   <i type="int" name="IRESTART">     0</i>
   <i type="int" name="NREBOOT">     0</i>
   <i type="int" name="NMIN">     0</i>
   <i name="EREF">      0.00000000</i>
   <separator name="electronic smearing" >
    <i type="int" name="ISMEAR">     0</i>
    <i name="SIGMA">      0.10000000</i>
    <i name="KSPACING">      0.50000000</i>
    <i type="logical" name="KGAMMA"> T  </i>
   </separator>
   <separator name="electronic projectors" >
    <i type="logical" name="LREAL"> F  </i>
    <v name="ROPT">      0.00000000      0.00000000</v>
    <i type="int" name="LMAXPAW">  -100</i>
    <i type="int" name="LMAXMIX">     2</i>
    <i type="logical" name="NLSPLINE"> F  </i>
   </separator>
   <separator name="electronic startup" >
    <i type="int" name="ISTART">     0</i>
    <i type="int" name="ICHARG">     2</i>
    <i type="int" name="INIWAV">     1</i>
   </separator>
   <separator name="electronic spin" >
    <i type="int" name="ISPIN">     1</i>
    <i type="logical" name="LNONCOLLINEAR"> F  </i>
    <v name="MAGMOM">      1.00000000      1.00000000      1.00000000      1.00000000      1.00000000      1.00000000      1.00000000      1.00000000      1.00000000      1.00000000      1.00000000      1.00000000      1.00000000      1.00000000      1.00000000      1.00000000      1.00000000      1.00000000</v>
    <i name="NUPDOWN">     -1.00000000</i>
    <i type="logical" name="LSORBIT"> F  </i>
    <v name="SAXIS">      0.00000000      0.00000000      1.00000000</v>
    <i type="logical" name="LSPIRAL"> F  </i>
    <v name="QSPIRAL">      0.00000000      0.00000000      0.00000000</v>
    <i type="logical" name="LZEROZ"> F  </i>
   </separator>
   <separator name="electronic exchange-correlation" >
    <i type="logical" name="LASPH"> F  </i>
    <i type="logical" name="LMETAGGA"> F  </i>
   </separator>
   <separator name="electronic convergence" >
    <i type="int" name="NELM">   400</i>
    <i type="int" name="NELMDL">     0</i>
    <i type="int" name="NELMIN">     4</i>
    <i name="ENINI">    400.00000000</i>
    <separator name="electronic convergence detail" >
     <i type="logical" name="LDIAG"> T  </i>
     <i type="logical" name="LSUBROT"> F  </i>
     <i name="WEIMIN">      0.00000000</i>
     <i name="EBREAK">      0.00000001</i>
     <i name="DEPER">      0.30000000</i>
     <i type="int" name="NRMM">     4</i>
     <i name="TIME">      0.40000000</i>
    </separator>
   </separator>
   <separator name="electronic mixer" >
    <i name="AMIX">      0.40000000</i>
    <i name="BMIX">      1.00000000</i>
    <i name="AMIN">      0.10000000</i>
    <i name="AMIX_MAG">      1.60000000</i>
    <i name="BMIX_MAG">      1.00000000</i>
    <separator name="electronic mixer details" >
     <i type="int" name="IMIX">     4</i>
     <i type="logical" name="MIXFIRST"> F  </i>
     <i type="int" name="MAXMIX">   -45</i>
     <i name="WC">    100.00000000</i>
     <i type="int" name="INIMIX">     1</i>
     <i type="int" name="MIXPRE">     1</i>
     <i type="int" name="MREMOVE">     5</i>
    </separator>
   </separator>
   <separator name="electronic dipolcorrection" >
    <i type="logical" name="LDIPOL"> T  </i>
    <i type="logical" name="LMONO"> F  </i>
    <i type="int" name="IDIPOL">     4</i>
    <i name="EPSILON">      1.00000000</i>
    <v name="DIPOL">      0.50000000      0.50000000      0.50000000</v>
    <i name="EFIELD">      0.00000000</i>
   </separator>
  </separator>
  <separator name="grids" >
   <i type="int" name="NGX">    98</i>
   <i type="int" name="NGY">    98</i>
   <i type="int" name="NGZ">    98</i>
   <i type="int" name="NGXF">   160</i>
   <i type="int" name="NGYF">   160</i>
   <i type="int" name="NGZF">   160</i>
   <i type="logical" name="ADDGRID"> F  </i>
  </separator>
  <separator name="ionic" >
   <i type="int" name="NSW">   400</i>
   <i type="int" name="IBRION">    -1</i>
   <i type="int" name="MDALGO">     0</i>
   <i type="int" name="ISIF">     2</i>
   <i name="PSTRESS">      0.00000000</i>
   <i name="EDIFFG">      0.00001000</i>
   <i type="int" name="NFREE">     0</i>
   <i name="POTIM">      0.50000000</i>
   <i name="SMASS">     -3.00000000</i>
   <i name="SCALEE">      1.00000000</i>
  </separator>
  <separator name="ionic md" >
   <i name="TEBEG">      0.00010000</i>
   <i name="TEEND">      0.00010000</i>
   <i type="int" name="NBLOCK">     1</i>
   <i type="int" name="KBLOCK">   400</i>
   <i type="int" name="NPACO">   256</i>
   <i name="APACO">     16.00000000</i>
  </separator>
  <separator name="symmetry" >
   <i type="int" name="ISYM">     2</i>
   <i name="SYMPREC">      0.00001000</i>
  </separator>
  <separator name="dos" >
   <i type="int" name="LORBIT">    11</i>
   <v name="RWIGS">     -1.00000000     -1.00000000</v>
   <i type="int" name="NEDOS">   301</i>
   <i name="EMIN">     10.00000000</i>
   <i name="EMAX">    -10.00000000</i>
   <i name="EFERMI">      0.00000000</i>
  </separator>
  <separator name="writing" >
   <i type="int" name="NWRITE">     1</i>
   <i type="logical" name="LWAVE"> F  </i>
   <i type="logical" name="LDOWNSAMPLE"> F  </i>
   <i type="logical" name="LCHARG"> F  </i>
   <i type="logical" name="LPARD"> F  </i>
   <i type="logical" name="LVTOT"> F  </i>
   <i type="logical" name="LVHAR"> F  </i>
   <i type="logical" name="LELF"> F  </i>
   <i type="logical" name="LOPTICS"> F  </i>
   <v name="STM">      0.00000000      0.00000000      0.00000000      0.00000000      0.00000000      0.00000000      0.00000000</v>
  </separator>
  <separator name="performance" >
   <i type="int" name="NPAR">     4</i>
   <i type="int" name="NSIM">     4</i>
   <i type="int" name="NBLK">    -1</i>
   <i type="logical" name="LPLANE"> T  </i>
   <i type="logical" name="LSCALAPACK"> T  </i>
   <i type="logical" name="LSCAAWARE"> F  </i>
   <i type="logical" name="LSCALU"> F  </i>
   <i type="logical" name="LASYNC"> F  </i>
   <i type="logical" name="LORBITALREAL"> F  </i>
  </separator>
  <separator name="miscellaneous" >
   <i type="int" name="IDIOT">     3</i>
   <i type="int" name="ISPECIAL">     0</i>
   <i type="logical" name="LMUSIC"> F  </i>
   <v name="POMASS">      1.00000000     16.00000000</v>
   <v name="DARWINR">      0.00000000      0.00000000</v>
   <v name="DARWINV">      1.00000000      1.00000000</v>
   <i type="logical" name="LCORR"> T  </i>
  </separator>
  <i type="logical" name="GGA_COMPAT"> T  </i>
  <i type="logical" name="LBERRY"> F  </i>
  <i type="int" name="ICORELEVEL">     0</i>
  <i type="logical" name="LDAU"> F  </i>
  <i type="int" name="I_CONSTRAINED_M">     0</i>
  <separator name="electronic exchange-correlation" >
   <i type="string" name="GGA">--</i>
   <i type="int" name="VOSKOWN">     0</i>
   <i type="logical" name="LHFCALC"> F  </i>
   <i type="string" name="PRECFOCK"></i>
   <i type="logical" name="LSYMGRAD"> F  </i>
   <i type="logical" name="LHFONE"> F  </i>
   <i type="logical" name="LRHFCALC"> F  </i>
   <i type="logical" name="LTHOMAS"> F  </i>
   <i type="logical" name="LMODELHF"> F  </i>
   <i name="ENCUT4O">     -1.00000000</i>
   <i type="int" name="EXXOEP">     0</i>
   <i type="int" name="FOURORBIT">     0</i>
   <i name="AEXX">      0.00000000</i>
   <i name="HFALPHA">      0.00000000</i>
   <i name="MCALPHA">      0.00000000</i>
   <i name="ALDAX">      1.00000000</i>
   <i name="AGGAX">      1.00000000</i>
   <i name="ALDAC">      1.00000000</i>
   <i name="AGGAC">      1.00000000</i>
   <i type="int" name="NKREDX">     1</i>
   <i type="int" name="NKREDY">     1</i>
   <i type="int" name="NKREDZ">     1</i>
   <i type="logical" name="SHIFTRED"> F  </i>
   <i type="logical" name="ODDONLY"> F  </i>
   <i type="logical" name="EVENONLY"> F  </i>
   <i type="int" name="LMAXFOCK">     0</i>
   <i type="int" name="NMAXFOCKAE">     0</i>
   <i type="logical" name="LFOCKAEDFT"> F  </i>
   <i name="HFSCREEN">      0.00000000</i>
   <i name="HFSCREENC">      0.00000000</i>
   <i type="int" name="NBANDSGWLOW">     0</i>
  </separator>
  <separator name="vdW DFT" >
   <i type="logical" name="LUSE_VDW"> F  </i>
   <i name="Zab_VDW">     -0.84910000</i>
   <i name="PARAM1">      0.12340000</i>
   <i name="PARAM2">      1.00000000</i>
   <i name="PARAM3">      0.00000000</i>
  </separator>
  <separator name="model GW" >
   <i type="int" name="MODEL_GW">     0</i>
   <i name="MODEL_EPS0">    266.66666667</i>
   <i name="MODEL_ALPHA">      1.00000000</i>
  </separator>
  <separator name="linear response parameters" >
   <i type="logical" name="LEPSILON"> F  </i>
   <i type="logical" name="LRPA"> F  </i>
   <i type="logical" name="LNABLA"> F  </i>
   <i type="logical" name="LVEL"> F  </i>
   <i type="int" name="KINTER">     0</i>
   <i name="CSHIFT">      0.10000000</i>
   <i name="OMEGAMAX">     -1.00000000</i>
   <i name="DEG_THRESHOLD">      0.00200000</i>
   <i name="RTIME">     -0.10000000</i>
   <i name="WPLASMAI">      0.00000000</i>
   <v name="DFIELD">      0.00000000      0.00000000      0.00000000</v>
   <v name="WPLASMA">      0.00000000      0.00000000      0.00000000      0.00000000      0.00000000      0.00000000      0.00000000      0.00000000      0.00000000</v>
  </separator>
  <separator name="orbital magnetization" >
   <i type="logical" name="NUCIND"> F  </i>
   <v name="MAGPOS">      0.00000000      0.00000000      0.00000000</v>
   <i type="logical" name="LNICSALL"> T  </i>
   <i type="logical" name="ORBITALMAG"> F  </i>
   <i type="logical" name="LMAGBLOCH"> F  </i>
   <i type="logical" name="LCHIMAG"> F  </i>
   <i type="logical" name="LGAUGE"> T  </i>
   <i type="int" name="MAGATOM">     0</i>
   <v name="MAGDIPOL">      0.00000000      0.00000000      0.00000000</v>
   <v name="AVECCONST">      0.00000000      0.00000000      0.00000000</v>
  </separator>
  <separator name="response functions" >
   <i type="logical" name="LADDER"> F  </i>
   <i type="logical" name="LRPAFORCE"> F  </i>
   <i type="logical" name="LFXC"> F  </i>
   <i type="logical" name="LHARTREE"> T  </i>
   <i type="int" name="IBSE">     0</i>
   <v type="int" name="KPOINT">    -1     0     0     0</v>
   <i type="logical" name="LTCTE"> F  </i>
   <i type="logical" name="LTETE"> F  </i>
   <i type="logical" name="LTRIPLET"> F  </i>
   <i type="logical" name="LFXCEPS"> F  </i>
   <i type="logical" name="LFXHEG"> F  </i>
   <i type="int" name="NATURALO">     2</i>
   <i type="logical" name="L2ORDER"> F  </i>
   <i type="logical" name="LMP2LT"> F  </i>
   <i type="logical" name="LUSEW"> F  </i>
   <i name="ENCUTGW">     -2.00000000</i>
   <i name="ENCUTGWSOFT">     -2.00000000</i>
   <i name="ENCUTLF">     -1.00000000</i>
   <i type="int" name="LMAXMP2">    -1</i>
   <i name="SCISSOR">      0.00000000</i>
   <i type="int" name="NOMEGA">     0</i>
   <i type="int" name="NOMEGAR">     0</i>
   <i type="int" name="NBANDSGW">    -1</i>
   <i type="int" name="NBANDSO">    -1</i>
   <i type="int" name="NBANDSV">    -1</i>
   <i type="int" name="NELM">   400</i>
   <i type="int" name="NELMHF">     1</i>
   <i type="int" name="DIM">     3</i>
   <i type="int" name="ANTIRES">     0</i>
   <i name="OMEGAMAX">    -30.00000000</i>
   <i name="OMEGAMIN">    -30.00000000</i>
   <i name="OMEGATL">   -200.00000000</i>
   <i type="int" name="OMEGAGRID">   140</i>
   <i name="CSHIFT">     -0.10000000</i>
   <i type="logical" name="SELFENERGY"> F  </i>
   <i type="logical" name="LSPECTRAL"> F  </i>
   <i type="logical" name="LSPECTRALGW"> F  </i>
   <i type="logical" name="LSINGLES"> F  </i>
   <i type="logical" name="LFERMIGW"> F  </i>
   <i type="logical" name="ODDONLYGW"> F  </i>
   <i type="logical" name="EVENONLYGW"> F  </i>
   <i type="int" name="NKREDLFX">     1</i>
   <i type="int" name="NKREDLFY">     1</i>
   <i type="int" name="NKREDLFZ">     1</i>
   <i type="int" name="MAXMEM">  2800</i>
   <i type="int" name="TELESCOPE">     0</i>
   <i type="int" name="TAUPAR">     1</i>
   <i type="int" name="OMEGAPAR">    -1</i>
   <i name="LAMBDA">      1.00000000</i>
  </separator>
  <separator name="External order field" >
   <i name="OFIELD_KAPPA">      0.00000000</i>
   <v name="OFIELD_K">      0.00000000      0.00000000      0.00000000</v>
   <i name="OFIELD_Q6_NEAR">      0.00000000</i>
   <i name="OFIELD_Q6_FAR">      0.00000000</i>
   <i name="OFIELD_A">      0.00000000</i>
  </separator>
 </parameters>
 <atominfo>
  <atoms>      18 </atoms>
  <types>       2 </types>
  <array name="atoms" >
   <dimension dim="1">ion</dimension>
   <field type="string">element</field>
   <field type="int">atomtype</field>
   <set>
    <rc><c>H </c><c>   1</c></rc>
    <rc><c>H </c><c>   1</c></rc>
    <rc><c>H </c><c>   1</c></rc>
    <rc><c>H </c><c>   1</c></rc>
    <rc><c>H </c><c>   1</c></rc>
    <rc><c>H </c><c>   1</c></rc>
    <rc><c>H </c><c>   1</c></rc>
    <rc><c>H </c><c>   1</c></rc>
    <rc><c>H </c><c>   1</c></rc>
    <rc><c>H </c><c>   1</c></rc>
    <rc><c>H </c><c>   1</c></rc>
    <rc><c>H </c><c>   1</c></rc>
    <rc><c>O </c><c>   2</c></rc>
    <rc><c>O </c><c>   2</c></rc>
    <rc><c>O </c><c>   2</c></rc>
    <rc><c>O </c><c>   2</c></rc>
    <rc><c>O </c><c>   2</c></rc>
    <rc><c>O </c><c>   2</c></rc>
   </set>
  </array>
  <array name="atomtypes" >
   <dimension dim="1">type</dimension>
   <field type="int">atomspertype</field>
   <field type="string">element</field>
   <field>mass</field>
   <field>valence</field>
   <field type="string">pseudopotential</field>
   <set>
    <rc><c>  12</c><c>H </c><c>      1.00000000</c><c>      1.00000000</c><c>  PAW_PBE H 15Jun2001                   </c></rc>
    <rc><c>   6</c><c>O </c><c>     16.00000000</c><c>      6.00000000</c><c>  PAW_PBE O 08Apr2002                   </c></rc>
   </set>
  </array>
 </atominfo>
 <structure name="initialpos" >
  <crystal>
   <varray name="basis" >
    <v>      20.00000000       0.00000000       0.00000000 </v>
    <v>       0.00000000      20.00000000       0.00000000 </v>
    <v>       0.00000000       0.00000000      20.00000000 </v>
   </varray>
   <i name="volume">   8000.00000000 </i>
   <varray name="rec_basis" >
    <v>       0.05000000       0.00000000       0.00000000 </v>
    <v>       0.00000000       0.05000000       0.00000000 </v>
    <v>       0.00000000       0.00000000       0.05000000 </v>
   </varray>
  </crystal>
  <varray name="positions" >
   <v>       0.51696044       0.48231771       0.42450384 </v>
   <v>       0.58250409       0.51749296       0.44267829 </v>
   <v>       0.50958844       0.51448731       0.57599144 </v>
   <v>       0.50881759       0.44253796       0.55194014 </v>
   <v>       0.61067104       0.48867021       0.54297044 </v>
   <v>       0.68202664       0.47599011       0.51539879 </v>
   <v>       0.41832169       0.43807436       0.47809879 </v>
   <v>       0.44818364       0.37077486       0.45331244 </v>
   <v>       0.32000000       0.49750456       0.53770659 </v>
   <v>       0.39097829       0.53815556       0.50631739 </v>
   <v>       0.49542619       0.56961846       0.47781379 </v>
   <v>       0.47029514       0.63315261       0.51581875 </v>
   <v>       0.53931234       0.52526726       0.42129739 </v>
   <v>       0.53148534       0.47185586       0.58328284 </v>
   <v>       0.64368714       0.50445581       0.51036774 </v>
   <v>       0.46046439       0.41406651       0.47018254 </v>
   <v>       0.36007474       0.50112251       0.49787849 </v>
   <v>       0.46704339       0.58519926       0.51557024 </v>
  </varray>
  <varray name="velocities" >
   <v>       0.00000000       0.00000000       0.00000000 </v>
   <v>       0.00000000       0.00000000       0.00000000 </v>
   <v>       0.00000000       0.00000000       0.00000000 </v>
   <v>       0.00000000       0.00000000       0.00000000 </v>
   <v>       0.00000000       0.00000000       0.00000000 </v>
   <v>       0.00000000       0.00000000       0.00000000 </v>
   <v>       0.00000000       0.00000000       0.00000000 </v>
   <v>       0.00000000       0.00000000       0.00000000 </v>
   <v>       0.00000000       0.00000000       0.00000000 </v>
   <v>       0.00000000       0.00000000       0.00000000 </v>
   <v>       0.00000000       0.00000000       0.00000000 </v>
   <v>       0.00000000       0.00000000       0.00000000 </v>
   <v>       0.00000000       0.00000000       0.00000000 </v>
   <v>       0.00000000       0.00000000       0.00000000 </v>
   <v>       0.00000000       0.00000000       0.00000000 </v>
   <v>       0.00000000       0.00000000       0.00000000 </v>
   <v>       0.00000000       0.00000000       0.00000000 </v>
   <v>       0.00000000       0.00000000       0.00000000 </v>
  </varray>
 </structure>
 <calculation>
  <scstep>
   <time name="dav">    0.57    0.57</time>
   <time name="total">    0.69    0.69</time>
   <dipole>
    <v name="dipole">      0.00000282       0.00000082      -0.00000082 </v>
    <i name="Tr[quadrupol]">     26.40803677 </i>
    <i name="Echarged">      0.00000000 </i>
    <i name="Edipol_quadrupol">      0.00000000 </i>
    <i name="Eion">      0.00000000 </i>
   </dipole>
   <energy>
    <i name="alphaZ">      1.00913064 </i>
    <i name="ewald">   3088.91719270 </i>
    <i name="hartreedc">  -5244.53645835 </i>
    <i name="XCdc">    195.01756129 </i>
    <i name="pawpsdc">   2104.90519057 </i>
    <i name="pawaedc">  -2115.80374798 </i>
    <i name="eentropy">     -0.11486492 </i>
    <i name="bandstr">   -255.31467205 </i>
    <i name="atom">   2743.32276819 </i>
    <i name="e_fr_energy">    517.40210010 </i>
    <i name="e_wo_entrp">    517.51696502 </i>
    <i name="e_0_energy">    517.45953256 </i>
   </energy>
  </scstep>
  <scstep>
   <time name="dav">    0.77    0.78</time>
   <time name="total">    0.78    0.78</time>
   <dipole>
    <v name="dipole">      0.00000282       0.00000082      -0.00000082 </v>
    <i name="Tr[quadrupol]">     26.40803677 </i>
    <i name="Echarged">      0.00000000 </i>
    <i name="Edipol_quadrupol">      0.00000000 </i>
    <i name="Eion">      0.00000000 </i>
   </dipole>
   <energy>
    <i name="e_fr_energy">    227.92342553 </i>
    <i name="e_wo_entrp">    227.93768079 </i>
    <i name="e_0_energy">    227.93055316 </i>
   </energy>
  </scstep>
  <scstep>
   <time name="dav">    0.73    0.73</time>
   <time name="total">    0.73    0.73</time>
   <dipole>
    <v name="dipole">      0.00000282       0.00000082      -0.00000082 </v>
    <i name="Tr[quadrupol]">     26.40803677 </i>
    <i name="Echarged">      0.00000000 </i>
    <i name="Edipol_quadrupol">      0.00000000 </i>
    <i name="Eion">      0.00000000 </i>
   </dipole>
   <energy>
    <i name="e_fr_energy">    -39.86969764 </i>
    <i name="e_wo_entrp">    -39.86969764 </i>
    <i name="e_0_energy">    -39.86969764 </i>
   </energy>
  </scstep>
  <scstep>
   <time name="dav">    0.55    0.55</time>
   <time name="total">    0.55    0.55</time>
   <dipole>
    <v name="dipole">      0.00000282       0.00000082      -0.00000082 </v>
    <i name="Tr[quadrupol]">     26.40803677 </i>
    <i name="Echarged">      0.00000000 </i>
    <i name="Edipol_quadrupol">      0.00000000 </i>
    <i name="Eion">      0.00000000 </i>
   </dipole>
   <energy>
    <i name="e_fr_energy">    -95.57707796 </i>
    <i name="e_wo_entrp">    -95.57707796 </i>
    <i name="e_0_energy">    -95.57707796 </i>
   </energy>
  </scstep>
  <scstep>
   <time name="dav">    0.58    0.59</time>
   <time name="total">    0.62    0.63</time>
   <dipole>
    <v name="dipole">      0.00000282       0.00000082      -0.00000082 </v>
    <i name="Tr[quadrupol]">     26.40803677 </i>
    <i name="Echarged">      0.00000000 </i>
    <i name="Edipol_quadrupol">      0.00000000 </i>
    <i name="Eion">      0.00000000 </i>
   </dipole>
   <energy>
    <i name="e_fr_energy">    -96.70274653 </i>
    <i name="e_wo_entrp">    -96.70274653 </i>
    <i name="e_0_energy">    -96.70274653 </i>
   </energy>
  </scstep>
  <scstep>
   <time name="diag">    0.09    0.11</time>
   <time name="diis">    0.60    0.60</time>
   <time name="orth">    0.01    0.01</time>
   <time name="total">    0.84    0.86</time>
   <dipole>
    <v name="dipole">      0.07026303       0.04615563      -0.03619912 </v>
    <i name="Tr[quadrupol]">     24.79855507 </i>
    <i name="Echarged">      0.00000000 </i>
    <i name="Edipol_quadrupol">      0.00000000 </i>
    <i name="Eion">      0.00000000 </i>
   </dipole>
   <energy>
    <i name="e_fr_energy">    -87.55219058 </i>
    <i name="e_wo_entrp">    -87.55219058 </i>
    <i name="e_0_energy">    -87.55219058 </i>
   </energy>
  </scstep>
  <scstep>
   <time name="diag">    0.09    0.09</time>
   <time name="diis">    0.61    0.61</time>
   <time name="orth">    0.01    0.01</time>
   <time name="total">    0.85    0.85</time>
   <dipole>
    <v name="dipole">      0.11931868       0.07452130      -0.05344465 </v>
    <i name="Tr[quadrupol]">     23.78237416 </i>
    <i name="Echarged">      0.00000000 </i>
    <i name="Edipol_quadrupol">      0.00000000 </i>
    <i name="Eion">      0.00000000 </i>
   </dipole>
   <energy>
    <i name="e_fr_energy">    -87.17596396 </i>
    <i name="e_wo_entrp">    -87.17596396 </i>
    <i name="e_0_energy">    -87.17596396 </i>
   </energy>
  </scstep>
  <scstep>
   <time name="diag">    0.09    0.09</time>
   <time name="diis">    0.60    0.60</time>
   <time name="orth">    0.01    0.01</time>
   <time name="total">    0.84    0.84</time>
   <dipole>
    <v name="dipole">      0.20760272       0.12267955      -0.08110458 </v>
    <i name="Tr[quadrupol]">     22.00180691 </i>
    <i name="Echarged">      0.00000000 </i>
    <i name="Edipol_quadrupol">      0.00000000 </i>
    <i name="Eion">      0.00000000 </i>
   </dipole>
   <energy>
    <i name="e_fr_energy">    -86.92609700 </i>
    <i name="e_wo_entrp">    -86.92609700 </i>
    <i name="e_0_energy">    -86.92609700 </i>
   </energy>
  </scstep>
  <scstep>
   <time name="diag">    0.09    0.09</time>
   <time name="diis">    0.60    0.60</time>
   <time name="orth">    0.01    0.01</time>
   <time name="total">    0.84    0.84</time>
   <dipole>
    <v name="dipole">      0.24214055       0.14162078      -0.09224865 </v>
    <i name="Tr[quadrupol]">     21.26522492 </i>
    <i name="Echarged">      0.00000000 </i>
    <i name="Edipol_quadrupol">      0.00000000 </i>
    <i name="Eion">      0.00000000 </i>
   </dipole>
   <energy>
    <i name="e_fr_energy">    -86.89300103 </i>
    <i name="e_wo_entrp">    -86.89300103 </i>
    <i name="e_0_energy">    -86.89300103 </i>
   </energy>
  </scstep>
  <scstep>
   <time name="diag">    0.09    0.09</time>
   <time name="diis">    0.55    0.55</time>
   <time name="orth">    0.01    0.01</time>
   <time name="total">    0.80    0.80</time>
   <dipole>
    <v name="dipole">      0.29304588       0.16869385      -0.10592400 </v>
    <i name="Tr[quadrupol]">     20.14885000 </i>
    <i name="Echarged">      0.00000000 </i>
    <i name="Edipol_quadrupol">      0.00000000 </i>
    <i name="Eion">      0.00000000 </i>
   </dipole>
   <energy>
    <i name="e_fr_energy">    -86.88936240 </i>
    <i name="e_wo_entrp">    -86.88936240 </i>
    <i name="e_0_energy">    -86.88936240 </i>
   </energy>
  </scstep>
  <scstep>
   <time name="diag">    0.09    0.09</time>
   <time name="diis">    0.57    0.57</time>
   <time name="orth">    0.01    0.01</time>
   <time name="total">    0.81    0.81</time>
   <dipole>
    <v name="dipole">      0.32315837       0.18475548      -0.11417478 </v>
    <i name="Tr[quadrupol]">     19.42947636 </i>
    <i name="Echarged">      0.00000000 </i>
    <i name="Edipol_quadrupol">      0.00000000 </i>
    <i name="Eion">      0.00000000 </i>
   </dipole>
   <energy>
    <i name="e_fr_energy">    -86.89046225 </i>
    <i name="e_wo_entrp">    -86.89046225 </i>
    <i name="e_0_energy">    -86.89046225 </i>
   </energy>
  </scstep>
  <scstep>
   <time name="diag">    0.09    0.09</time>
   <time name="diis">    0.53    0.53</time>
   <time name="orth">    0.01    0.01</time>
   <time name="total">    0.78    0.78</time>
   <dipole>
    <v name="dipole">      0.35866477       0.20401353      -0.12413227 </v>
    <i name="Tr[quadrupol]">     18.39963926 </i>
    <i name="Echarged">      0.00000000 </i>
    <i name="Edipol_quadrupol">      0.00000000 </i>
    <i name="Eion">      0.00000000 </i>
   </dipole>
   <energy>
    <i name="e_fr_energy">    -86.90451451 </i>
    <i name="e_wo_entrp">    -86.90451451 </i>
    <i name="e_0_energy">    -86.90451451 </i>
   </energy>
  </scstep>
  <scstep>
   <time name="diag">    0.09    0.09</time>
   <time name="diis">    0.56    0.56</time>
   <time name="orth">    0.01    0.01</time>
   <time name="total">    0.80    0.80</time>
   <dipole>
    <v name="dipole">      0.36731226       0.20870031      -0.12619430 </v>
    <i name="Tr[quadrupol]">     18.03680213 </i>
    <i name="Echarged">      0.00000000 </i>
    <i name="Edipol_quadrupol">      0.00000000 </i>
    <i name="Eion">      0.00000000 </i>
   </dipole>
   <energy>
    <i name="e_fr_energy">    -86.91161907 </i>
    <i name="e_wo_entrp">    -86.91161907 </i>
    <i name="e_0_energy">    -86.91161907 </i>
   </energy>
  </scstep>
  <scstep>
   <time name="diag">    0.09    0.09</time>
   <time name="diis">    0.54    0.54</time>
   <time name="orth">    0.01    0.01</time>
   <time name="total">    0.78    0.78</time>
   <dipole>
    <v name="dipole">      0.37233527       0.21142670      -0.12738119 </v>
    <i name="Tr[quadrupol]">     17.76997661 </i>
    <i name="Echarged">      0.00000000 </i>
    <i name="Edipol_quadrupol">      0.00000000 </i>
    <i name="Eion">      0.00000000 </i>
   </dipole>
   <energy>
    <i name="e_fr_energy">    -86.91675676 </i>
    <i name="e_wo_entrp">    -86.91675676 </i>
    <i name="e_0_energy">    -86.91675676 </i>
   </energy>
  </scstep>
  <scstep>
   <time name="diag">    0.09    0.09</time>
   <time name="diis">    0.51    0.51</time>
   <time name="orth">    0.01    0.01</time>
   <time name="total">    0.76    0.76</time>
   <dipole>
    <v name="dipole">      0.37549422       0.21312627      -0.12826368 </v>
    <i name="Tr[quadrupol]">     17.58988224 </i>
    <i name="Echarged">      0.00000000 </i>
    <i name="Edipol_quadrupol">      0.00000000 </i>
    <i name="Eion">      0.00000000 </i>
   </dipole>
   <energy>
    <i name="e_fr_energy">    -86.91963935 </i>
    <i name="e_wo_entrp">    -86.91963935 </i>
    <i name="e_0_energy">    -86.91963935 </i>
   </energy>
  </scstep>
  <scstep>
   <time name="diag">    0.09    0.09</time>
   <time name="diis">    0.54    0.54</time>
   <time name="orth">    0.01    0.01</time>
   <time name="total">    0.78    0.79</time>
   <dipole>
    <v name="dipole">      0.37782943       0.21429029      -0.12889771 </v>
    <i name="Tr[quadrupol]">     17.45997365 </i>
    <i name="Echarged">      0.00000000 </i>
    <i name="Edipol_quadrupol">      0.00000000 </i>
    <i name="Eion">      0.00000000 </i>
   </dipole>
   <energy>
    <i name="e_fr_energy">    -86.92132888 </i>
    <i name="e_wo_entrp">    -86.92132888 </i>
    <i name="e_0_energy">    -86.92132888 </i>
   </energy>
  </scstep>
  <scstep>
   <time name="diag">    0.09    0.09</time>
   <time name="diis">    0.56    0.56</time>
   <time name="orth">    0.01    0.01</time>
   <time name="total">    0.81    0.81</time>
   <dipole>
    <v name="dipole">      0.37942796       0.21514238      -0.12938300 </v>
    <i name="Tr[quadrupol]">     17.40725183 </i>
    <i name="Echarged">      0.00000000 </i>
    <i name="Edipol_quadrupol">      0.00000000 </i>
    <i name="Eion">      0.00000000 </i>
   </dipole>
   <energy>
    <i name="e_fr_energy">    -86.92177738 </i>
    <i name="e_wo_entrp">    -86.92177738 </i>
    <i name="e_0_energy">    -86.92177738 </i>
   </energy>
  </scstep>
  <scstep>
   <time name="diag">    0.09    0.09</time>
   <time name="diis">    0.54    0.54</time>
   <time name="orth">    0.01    0.01</time>
   <time name="total">    0.78    0.78</time>
   <dipole>
    <v name="dipole">      0.38091933       0.21597428      -0.12983315 </v>
    <i name="Tr[quadrupol]">     17.37476799 </i>
    <i name="Echarged">      0.00000000 </i>
    <i name="Edipol_quadrupol">      0.00000000 </i>
    <i name="Eion">      0.00000000 </i>
   </dipole>
   <energy>
    <i name="e_fr_energy">    -86.92206063 </i>
    <i name="e_wo_entrp">    -86.92206063 </i>
    <i name="e_0_energy">    -86.92206063 </i>
   </energy>
  </scstep>
  <scstep>
   <time name="diag">    0.09    0.09</time>
   <time name="diis">    0.55    0.55</time>
   <time name="orth">    0.01    0.01</time>
   <time name="total">    0.80    0.80</time>
   <dipole>
    <v name="dipole">      0.38229504       0.21678264      -0.13027450 </v>
    <i name="Tr[quadrupol]">     17.35176058 </i>
    <i name="Echarged">      0.00000000 </i>
    <i name="Edipol_quadrupol">      0.00000000 </i>
    <i name="Eion">      0.00000000 </i>
   </dipole>
   <energy>
    <i name="e_fr_energy">    -86.92222157 </i>
    <i name="e_wo_entrp">    -86.92222157 </i>
    <i name="e_0_energy">    -86.92222157 </i>
   </energy>
  </scstep>
  <scstep>
   <time name="diag">    0.09    0.09</time>
   <time name="diis">    0.45    0.45</time>
   <time name="orth">    0.01    0.01</time>
   <time name="total">    0.69    0.69</time>
   <dipole>
    <v name="dipole">      0.38302922       0.21725428      -0.13052942 </v>
    <i name="Tr[quadrupol]">     17.34161699 </i>
    <i name="Echarged">      0.00000000 </i>
    <i name="Edipol_quadrupol">      0.00000000 </i>
    <i name="Eion">      0.00000000 </i>
   </dipole>
   <energy>
    <i name="e_fr_energy">    -86.92227822 </i>
    <i name="e_wo_entrp">    -86.92227822 </i>
    <i name="e_0_energy">    -86.92227822 </i>
   </energy>
  </scstep>
  <scstep>
   <time name="diag">    0.09    0.09</time>
   <time name="diis">    0.42    0.43</time>
   <time name="orth">    0.01    0.01</time>
   <time name="total">    0.67    0.68</time>
   <dipole>
    <v name="dipole">      0.38394093       0.21789548      -0.13087103 </v>
    <i name="Tr[quadrupol]">     17.33255874 </i>
    <i name="Echarged">      0.00000000 </i>
    <i name="Edipol_quadrupol">      0.00000000 </i>
    <i name="Eion">      0.00000000 </i>
   </dipole>
   <energy>
    <i name="e_fr_energy">    -86.92232244 </i>
    <i name="e_wo_entrp">    -86.92232244 </i>
    <i name="e_0_energy">    -86.92232244 </i>
   </energy>
  </scstep>
  <scstep>
   <time name="diag">    0.10    0.10</time>
   <time name="diis">    0.43    0.43</time>
   <time name="orth">    0.01    0.01</time>
   <time name="total">    0.68    0.68</time>
   <dipole>
    <v name="dipole">      0.38419507       0.21809766      -0.13097708 </v>
    <i name="Tr[quadrupol]">     17.33056294 </i>
    <i name="Echarged">      0.00000000 </i>
    <i name="Edipol_quadrupol">      0.00000000 </i>
    <i name="Eion">      0.00000000 </i>
   </dipole>
   <energy>
    <i name="e_fr_energy">    -86.92233103 </i>
    <i name="e_wo_entrp">    -86.92233103 </i>
    <i name="e_0_energy">    -86.92233103 </i>
   </energy>
  </scstep>
  <scstep>
   <time name="diag">    0.09    0.09</time>
   <time name="diis">    0.38    0.39</time>
   <time name="orth">    0.01    0.01</time>
   <time name="total">    0.64    0.64</time>
   <dipole>
    <v name="dipole">      0.38440515       0.21827890      -0.13107097 </v>
    <i name="Tr[quadrupol]">     17.32900084 </i>
    <i name="Echarged">      0.00000000 </i>
    <i name="Edipol_quadrupol">      0.00000000 </i>
    <i name="Eion">      0.00000000 </i>
   </dipole>
   <energy>
    <i name="e_fr_energy">    -86.92233671 </i>
    <i name="e_wo_entrp">    -86.92233671 </i>
    <i name="e_0_energy">    -86.92233671 </i>
   </energy>
  </scstep>
  <scstep>
   <time name="diag">    0.10    0.10</time>
   <time name="diis">    0.37    0.37</time>
   <time name="orth">    0.01    0.01</time>
   <time name="total">    0.62    0.62</time>
   <dipole>
    <v name="dipole">      0.38453423       0.21840276      -0.13113368 </v>
    <i name="Tr[quadrupol]">     17.32796876 </i>
    <i name="Echarged">      0.00000000 </i>
    <i name="Edipol_quadrupol">      0.00000000 </i>
    <i name="Eion">      0.00000000 </i>
   </dipole>
   <energy>
    <i name="e_fr_energy">    -86.92233962 </i>
    <i name="e_wo_entrp">    -86.92233962 </i>
    <i name="e_0_energy">    -86.92233962 </i>
   </energy>
  </scstep>
  <scstep>
   <time name="diag">    0.09    0.09</time>
   <time name="diis">    0.40    0.41</time>
   <time name="orth">    0.01    0.01</time>
   <time name="total">    0.66    0.66</time>
   <dipole>
    <v name="dipole">      0.38456895       0.21844307      -0.13115397 </v>
    <i name="Tr[quadrupol]">     17.32762024 </i>
    <i name="Echarged">      0.00000000 </i>
    <i name="Edipol_quadrupol">      0.00000000 </i>
    <i name="Eion">      0.00000000 </i>
   </dipole>
   <energy>
    <i name="e_fr_energy">    -86.92234074 </i>
    <i name="e_wo_entrp">    -86.92234074 </i>
    <i name="e_0_energy">    -86.92234074 </i>
   </energy>
  </scstep>
  <scstep>
   <time name="diag">    0.10    0.10</time>
   <time name="diis">    0.35    0.35</time>
   <time name="orth">    0.01    0.01</time>
   <time name="total">    0.61    0.61</time>
   <dipole>
    <v name="dipole">      0.38460807       0.21849179      -0.13117866 </v>
    <i name="Tr[quadrupol]">     17.32722056 </i>
    <i name="Echarged">      0.00000000 </i>
    <i name="Edipol_quadrupol">      0.00000000 </i>
    <i name="Eion">      0.00000000 </i>
   </dipole>
   <energy>
    <i name="e_fr_energy">    -86.92234229 </i>
    <i name="e_wo_entrp">    -86.92234229 </i>
    <i name="e_0_energy">    -86.92234229 </i>
   </energy>
  </scstep>
  <scstep>
   <time name="diag">    0.10    0.10</time>
   <time name="diis">    0.39    0.39</time>
   <time name="orth">    0.01    0.01</time>
   <time name="total">    0.60    0.60</time>
   <dipole>
    <v name="dipole">      0.38463342       0.21852275      -0.13119437 </v>
    <i name="Tr[quadrupol]">     17.32698418 </i>
    <i name="Echarged">      0.00000000 </i>
    <i name="Edipol_quadrupol">      0.00000000 </i>
    <i name="Eion">      0.00000000 </i>
   </dipole>
   <energy>
    <i name="alphaZ">      1.01120712 </i>
    <i name="ewald">   3088.91719270 </i>
    <i name="hartreedc">  -5456.83462838 </i>
    <i name="XCdc">    205.14226113 </i>
    <i name="pawpsdc">   3375.21545678 </i>
    <i name="pawaedc">  -3387.78663202 </i>
    <i name="eentropy">     -0.00000000 </i>
    <i name="bandstr">   -655.90996864 </i>
    <i name="atom">   2743.32276819 </i>
    <i name="e_fr_energy">    -86.92234311 </i>
    <i name="e_wo_entrp">    -86.92234311 </i>
    <i name="e_0_energy">    -86.92234311 </i>
   </energy>
  </scstep>
  <structure>
   <crystal>
    <varray name="basis" >
     <v>      20.00000118       0.00000000       0.00000000 </v>
     <v>       0.00000000      20.00000118       0.00000000 </v>
     <v>       0.00000000       0.00000000      20.00000118 </v>
    </varray>
    <i name="volume">   8000.00141508 </i>
    <varray name="rec_basis" >
     <v>       0.05000000      -0.00000000      -0.00000000 </v>
     <v>       0.00000000       0.05000000      -0.00000000 </v>
     <v>       0.00000000       0.00000000       0.05000000 </v>
    </varray>
   </crystal>
   <varray name="positions" >
    <v>       0.51696044       0.48231771       0.42450384 </v>
    <v>       0.58250409       0.51749296       0.44267829 </v>
    <v>       0.50958844       0.51448731       0.57599144 </v>
    <v>       0.50881759       0.44253796       0.55194014 </v>
    <v>       0.61067104       0.48867021       0.54297044 </v>
    <v>       0.68202664       0.47599011       0.51539879 </v>
    <v>       0.41832169       0.43807436       0.47809879 </v>
    <v>       0.44818364       0.37077486       0.45331244 </v>
    <v>       0.32000000       0.49750456       0.53770659 </v>
    <v>       0.39097829       0.53815556       0.50631739 </v>
    <v>       0.49542619       0.56961846       0.47781379 </v>
    <v>       0.47029514       0.63315261       0.51581875 </v>
    <v>       0.53931234       0.52526726       0.42129739 </v>
    <v>       0.53148534       0.47185586       0.58328284 </v>
    <v>       0.64368714       0.50445581       0.51036774 </v>
    <v>       0.46046439       0.41406651       0.47018254 </v>
    <v>       0.36007474       0.50112251       0.49787849 </v>
    <v>       0.46704339       0.58519926       0.51557024 </v>
   </varray>
  </structure>
  <varray name="forces" >
   <v>      -0.35571081      -0.52909624       0.02146282 </v>
   <v>       0.61941354      -0.03615144       0.29931002 </v>
   <v>      -0.24138234       0.58359231      -0.04388937 </v>
   <v>      -0.25433650      -0.43789680      -0.38937495 </v>
   <v>      -0.55472113      -0.16882071       0.45125701 </v>
   <v>       0.47180621      -0.30062499      -0.01611801 </v>
   <v>      -0.58777890       0.38978040       0.19004890 </v>
   <v>      -0.06095143      -0.50343565      -0.18995840 </v>
   <v>       3.62506323       0.63658995      -3.15801974 </v>
   <v>       0.15017867       0.67897547       0.61606142 </v>
   <v>       0.40231315      -0.31255389      -0.54702923 </v>
   <v>      -0.02695329       0.53634353       0.06526939 </v>
   <v>      -0.23554993       0.57272102      -0.32903183 </v>
   <v>       0.53166405      -0.15427041       0.45307917 </v>
   <v>       0.04245842       0.45542893      -0.44891217 </v>
   <v>       0.61241037       0.15333714       0.05561424 </v>
   <v>      -3.73460559      -1.27104227       2.51277593 </v>
   <v>      -0.40331772      -0.29287636       0.45745481 </v>
  </varray>
  <varray name="stress" >
   <v>      -1.02172409      -0.08733373       0.51989236 </v>
   <v>      -0.08733373      -0.30151028       0.21967797 </v>
   <v>       0.51989235       0.21967797      -1.19893495 </v>
  </varray>
  <energy>
   <i name="e_fr_energy">    -86.92234311 </i>
   <i name="e_wo_entrp">    -86.92234311 </i>
   <i name="e_0_energy">     -0.00000000 </i>
  </energy>
  <time name="totalsc">   20.48   20.88</time>
 </calculation>
 <calculation>
  <scstep>
   <time name="dav">    0.57    0.57</time>
   <time name="total">    0.71    0.71</time>
   <dipole>
    <v name="dipole">      0.38579754       0.21872401      -0.13218135 </v>
    <i name="Tr[quadrupol]">     17.31852710 </i>
    <i name="Echarged">      0.00000000 </i>
    <i name="Edipol_quadrupol">      0.00000000 </i>
    <i name="Eion">      0.00000000 </i>
   </dipole>
   <energy>
    <i name="alphaZ">      1.01121572 </i>
    <i name="ewald">   3088.81114277 </i>
    <i name="hartreedc">  -5456.83421371 </i>
    <i name="XCdc">    205.14224109 </i>
    <i name="pawpsdc">   3375.21464497 </i>
    <i name="pawaedc">  -3387.78581533 </i>
    <i name="eentropy">     -0.00000000 </i>
    <i name="bandstr">   -655.80839797 </i>
    <i name="atom">   2743.32276819 </i>
    <i name="e_fr_energy">    -86.92641426 </i>
    <i name="e_wo_entrp">    -86.92641426 </i>
    <i name="e_0_energy">    -86.92641426 </i>
   </energy>
  </scstep>
  <scstep>
   <time name="diag">    0.09    0.09</time>
   <time name="diis">    0.52    0.52</time>
   <time name="orth">    0.01    0.01</time>
   <time name="total">    0.77    0.77</time>
   <dipole>
    <v name="dipole">      0.38558689       0.21865431      -0.13187664 </v>
    <i name="Tr[quadrupol]">     17.32074243 </i>
    <i name="Echarged">      0.00000000 </i>
    <i name="Edipol_quadrupol">      0.00000000 </i>
    <i name="Eion">      0.00000000 </i>
   </dipole>
   <energy>
    <i name="e_fr_energy">    -86.92635300 </i>
    <i name="e_wo_entrp">    -86.92635300 </i>
    <i name="e_0_energy">    -86.92635300 </i>
   </energy>
  </scstep>
  <scstep>
   <time name="diag">    0.09    0.09</time>
   <time name="diis">    0.53    0.53</time>
   <time name="orth">    0.01    0.01</time>
   <time name="total">    0.78    0.78</time>
   <dipole>
    <v name="dipole">      0.38525584       0.21855629      -0.13146283 </v>
    <i name="Tr[quadrupol]">     17.32383382 </i>
    <i name="Echarged">      0.00000000 </i>
    <i name="Edipol_quadrupol">      0.00000000 </i>
    <i name="Eion">      0.00000000 </i>
   </dipole>
   <energy>
    <i name="e_fr_energy">    -86.92632583 </i>
    <i name="e_wo_entrp">    -86.92632582 </i>
    <i name="e_0_energy">    -86.92632583 </i>
   </energy>
  </scstep>
  <scstep>
   <time name="diag">    0.10    0.10</time>
   <time name="diis">    0.49    0.49</time>
   <time name="orth">    0.01    0.01</time>
   <time name="total">    0.70    0.70</time>
   <dipole>
    <v name="dipole">      0.38520607       0.21855733      -0.13144463 </v>
    <i name="Tr[quadrupol]">     17.32398180 </i>
    <i name="Echarged">      0.00000000 </i>
    <i name="Edipol_quadrupol">      0.00000000 </i>
    <i name="Eion">      0.00000000 </i>
   </dipole>
   <energy>
    <i name="alphaZ">      1.01121338 </i>
    <i name="ewald">   3088.81114277 </i>
    <i name="hartreedc">  -5456.75895913 </i>
    <i name="XCdc">    205.14093576 </i>
    <i name="pawpsdc">   3375.02833963 </i>
    <i name="pawaedc">  -3387.59921100 </i>
    <i name="eentropy">     -0.00000000 </i>
    <i name="bandstr">   -655.88255550 </i>
    <i name="atom">   2743.32276819 </i>
    <i name="e_fr_energy">    -86.92632591 </i>
    <i name="e_wo_entrp">    -86.92632591 </i>
    <i name="e_0_energy">    -86.92632591 </i>
   </energy>
  </scstep>
  <structure>
   <crystal>
    <varray name="basis" >
     <v>      20.00000118       0.00000000       0.00000000 </v>
     <v>       0.00000000      20.00000118       0.00000000 </v>
     <v>       0.00000000       0.00000000      20.00000118 </v>
    </varray>
    <i name="volume">   8000.00141508 </i>
    <varray name="rec_basis" >
     <v>       0.05000000      -0.00000000      -0.00000000 </v>
     <v>       0.00000000       0.05000000      -0.00000000 </v>
     <v>       0.00000000       0.00000000       0.05000000 </v>
    </varray>
   </crystal>
   <varray name="positions" >
    <v>       0.51695914       0.48231578       0.42450391 </v>
    <v>       0.58250635       0.51749283       0.44267938 </v>
    <v>       0.50958756       0.51448943       0.57599128 </v>
    <v>       0.50881666       0.44253636       0.55193872 </v>
    <v>       0.61066902       0.48866959       0.54297208 </v>
    <v>       0.68202836       0.47598901       0.51539873 </v>
    <v>       0.41831955       0.43807578       0.47809948 </v>
    <v>       0.44818342       0.37077302       0.45331174 </v>
    <v>       0.32001321       0.49750688       0.53769508 </v>
    <v>       0.39097884       0.53815803       0.50631963 </v>
    <v>       0.49542765       0.56961732       0.47781179 </v>
    <v>       0.47029504       0.63315456       0.51581898 </v>
    <v>       0.53931148       0.52526934       0.42129619 </v>
    <v>       0.53148728       0.47185530       0.58328449 </v>
    <v>       0.64368729       0.50445747       0.51036610 </v>
    <v>       0.46046662       0.41406707       0.47018274 </v>
    <v>       0.36006113       0.50111788       0.49788764 </v>
    <v>       0.46704192       0.58519819       0.51557190 </v>
   </varray>
  </structure>
  <varray name="forces" >
   <v>      -0.35409538      -0.52584568       0.02121772 </v>
   <v>       0.61629541      -0.03553096       0.29779553 </v>
   <v>      -0.23963666       0.58046179      -0.04340280 </v>
   <v>      -0.25255540      -0.43572436      -0.38712064 </v>
   <v>      -0.55243295      -0.16757954       0.44876807 </v>
   <v>       0.46928254      -0.29875621      -0.01653068 </v>
   <v>      -0.58442945       0.38773388       0.18941867 </v>
   <v>      -0.06009985      -0.50047065      -0.18884109 </v>
   <v>       3.61778680       0.63560469      -3.15114728 </v>
   <v>       0.14309538       0.66990599       0.61350822 </v>
   <v>       0.40063320      -0.31196090      -0.54485627 </v>
   <v>      -0.02733574       0.53313936       0.06531841 </v>
   <v>      -0.23396114       0.56910599      -0.32702297 </v>
   <v>       0.52822942      -0.15320777       0.45015003 </v>
   <v>       0.04257454       0.45235724      -0.44599114 </v>
   <v>       0.60796353       0.15305075       0.05545376 </v>
   <v>      -3.71921038      -1.26080562       2.50808593 </v>
   <v>      -0.40210386      -0.29147801       0.45519654 </v>
  </varray>
  <varray name="stress" >
   <v>      -1.02412847      -0.08805109       0.51843840 </v>
   <v>      -0.08805109      -0.30579519       0.21881088 </v>
   <v>       0.51843840       0.21881088      -1.19899259 </v>
  </varray>
  <energy>
   <i name="e_fr_energy">    -86.92632591 </i>
   <i name="e_wo_entrp">    -86.92632591 </i>
   <i name="e_0_energy">     -0.00000000 </i>
  </energy>
  <time name="totalsc">    3.63    3.76</time>
 </calculation>
 <calculation>
  <scstep>
   <time name="dav">    0.57    0.57</time>
   <time name="total">    0.71    0.71</time>
   <dipole>
    <v name="dipole">      0.38689779       0.21886294      -0.13291818 </v>
    <i name="Tr[quadrupol]">     17.31132200 </i>
    <i name="Echarged">      0.00000000 </i>
    <i name="Edipol_quadrupol">      0.00000000 </i>
    <i name="Eion">      0.00000000 </i>
   </dipole>
   <energy>
    <i name="alphaZ">      1.01122674 </i>
    <i name="ewald">   3088.64000701 </i>
    <i name="hartreedc">  -5456.75400601 </i>
    <i name="XCdc">    205.14087938 </i>
    <i name="pawpsdc">   3375.02390484 </i>
    <i name="pawaedc">  -3387.59477418 </i>
    <i name="eentropy">     -0.00000000 </i>
    <i name="bandstr">   -655.72274572 </i>
    <i name="atom">   2743.32276819 </i>
    <i name="e_fr_energy">    -86.93273974 </i>
    <i name="e_wo_entrp">    -86.93273974 </i>
    <i name="e_0_energy">    -86.93273974 </i>
   </energy>
  </scstep>
  <scstep>
   <time name="diag">    0.10    0.10</time>
   <time name="diis">    0.49    0.49</time>
   <time name="orth">    0.01    0.01</time>
   <time name="total">    0.74    0.75</time>
   <dipole>
    <v name="dipole">      0.38649863       0.21873887      -0.13238943 </v>
    <i name="Tr[quadrupol]">     17.31532947 </i>
    <i name="Echarged">      0.00000000 </i>
    <i name="Edipol_quadrupol">      0.00000000 </i>
    <i name="Eion">      0.00000000 </i>
   </dipole>
   <energy>
    <i name="e_fr_energy">    -86.93256732 </i>
    <i name="e_wo_entrp">    -86.93256732 </i>
    <i name="e_0_energy">    -86.93256732 </i>
   </energy>
  </scstep>
  <scstep>
   <time name="diag">    0.09    0.09</time>
   <time name="diis">    0.54    0.54</time>
   <time name="orth">    0.01    0.01</time>
   <time name="total">    0.79    0.79</time>
   <dipole>
    <v name="dipole">      0.38585668       0.21856309      -0.13166432 </v>
    <i name="Tr[quadrupol]">     17.32102144 </i>
    <i name="Echarged">      0.00000000 </i>
    <i name="Edipol_quadrupol">      0.00000000 </i>
    <i name="Eion">      0.00000000 </i>
   </dipole>
   <energy>
    <i name="e_fr_energy">    -86.93249413 </i>
    <i name="e_wo_entrp">    -86.93249413 </i>
    <i name="e_0_energy">    -86.93249413 </i>
   </energy>
  </scstep>
  <scstep>
   <time name="diag">    0.09    0.09</time>
   <time name="diis">    0.51    0.51</time>
   <time name="orth">    0.01    0.01</time>
   <time name="total">    0.76    0.76</time>
   <dipole>
    <v name="dipole">      0.38574331       0.21856130      -0.13162312 </v>
    <i name="Tr[quadrupol]">     17.32142564 </i>
    <i name="Echarged">      0.00000000 </i>
    <i name="Edipol_quadrupol">      0.00000000 </i>
    <i name="Eion">      0.00000000 </i>
   </dipole>
   <energy>
    <i name="e_fr_energy">    -86.93249526 </i>
    <i name="e_wo_entrp">    -86.93249526 </i>
    <i name="e_0_energy">    -86.93249526 </i>
   </energy>
  </scstep>
  <scstep>
   <time name="diag">    0.09    0.09</time>
   <time name="diis">    0.37    0.37</time>
   <time name="orth">    0.01    0.01</time>
   <time name="total">    0.62    0.62</time>
   <dipole>
    <v name="dipole">      0.38535134       0.21853426      -0.13140032 </v>
    <i name="Tr[quadrupol]">     17.32345227 </i>
    <i name="Echarged">      0.00000000 </i>
    <i name="Edipol_quadrupol">      0.00000000 </i>
    <i name="Eion">      0.00000000 </i>
   </dipole>
   <energy>
    <i name="e_fr_energy">    -86.93249910 </i>
    <i name="e_wo_entrp">    -86.93249910 </i>
    <i name="e_0_energy">    -86.93249910 </i>
   </energy>
  </scstep>
  <scstep>
   <time name="diag">    0.10    0.10</time>
   <time name="diis">    0.47    0.47</time>
   <time name="orth">    0.01    0.01</time>
   <time name="total">    0.68    0.68</time>
   <dipole>
    <v name="dipole">      0.38526491       0.21851898      -0.13134563 </v>
    <i name="Tr[quadrupol]">     17.32407031 </i>
    <i name="Echarged">      0.00000000 </i>
    <i name="Edipol_quadrupol">      0.00000000 </i>
    <i name="Eion">      0.00000000 </i>
   </dipole>
   <energy>
    <i name="alphaZ">      1.01122090 </i>
    <i name="ewald">   3088.64000701 </i>
    <i name="hartreedc">  -5456.60230566 </i>
    <i name="XCdc">    205.13818166 </i>
    <i name="pawpsdc">   3374.69622583 </i>
    <i name="pawaedc">  -3387.26643646 </i>
    <i name="eentropy">     -0.00000000 </i>
    <i name="bandstr">   -655.87216095 </i>
    <i name="atom">   2743.32276819 </i>
    <i name="e_fr_energy">    -86.93249947 </i>
    <i name="e_wo_entrp">    -86.93249947 </i>
    <i name="e_0_energy">    -86.93249947 </i>
   </energy>
  </scstep>
  <structure>
   <crystal>
    <varray name="basis" >
     <v>      20.00000118       0.00000000       0.00000000 </v>
     <v>       0.00000000      20.00000118       0.00000000 </v>
     <v>       0.00000000       0.00000000      20.00000118 </v>
    </varray>
    <i name="volume">   8000.00141508 </i>
    <varray name="rec_basis" >
     <v>       0.05000000      -0.00000000      -0.00000000 </v>
     <v>       0.00000000       0.05000000      -0.00000000 </v>
     <v>       0.00000000       0.00000000       0.05000000 </v>
    </varray>
   </crystal>
   <varray name="positions" >
    <v>       0.51695705       0.48231266       0.42450404 </v>
    <v>       0.58251000       0.51749261       0.44268114 </v>
    <v>       0.50958614       0.51449287       0.57599102 </v>
    <v>       0.50881516       0.44253378       0.55193642 </v>
    <v>       0.61066575       0.48866860       0.54297474 </v>
    <v>       0.68203114       0.47598724       0.51539863 </v>
    <v>       0.41831608       0.43807807       0.47810060 </v>
    <v>       0.44818306       0.37077006       0.45331062 </v>
    <v>       0.32003457       0.49751063       0.53767647 </v>
    <v>       0.39097972       0.53816203       0.50632326 </v>
    <v>       0.49543003       0.56961548       0.47780857 </v>
    <v>       0.47029488       0.63315772       0.51581937 </v>
    <v>       0.53931009       0.52527272       0.42129425 </v>
    <v>       0.53149041       0.47185439       0.58328716 </v>
    <v>       0.64368754       0.50446015       0.51036346 </v>
    <v>       0.46047023       0.41406797       0.47018307 </v>
    <v>       0.36003912       0.50111039       0.49790245 </v>
    <v>       0.46703954       0.58519646       0.51557460 </v>
   </varray>
  </structure>
  <varray name="forces" >
   <v>      -0.35158238      -0.52079123       0.02082362 </v>
   <v>       0.61146076      -0.03454954       0.29541427 </v>
   <v>      -0.23685483       0.57530715      -0.04249124 </v>
   <v>      -0.24969242      -0.43224184      -0.38334510 </v>
   <v>      -0.54869654      -0.16564126       0.44485818 </v>
   <v>       0.46529272      -0.29576160      -0.01720991 </v>
   <v>      -0.57991229       0.38484663       0.18863887 </v>
   <v>      -0.05881189      -0.49599743      -0.18710732 </v>
   <v>       3.60617074       0.63395607      -3.14025288 </v>
   <v>       0.13157962       0.65558149       0.60969037 </v>
   <v>       0.39802896      -0.31085018      -0.54148633 </v>
   <v>      -0.02783529       0.52824410       0.06534638 </v>
   <v>      -0.23172403       0.56349062      -0.32390524 </v>
   <v>       0.52304310      -0.15153461       0.44540573 </v>
   <v>       0.04254918       0.44755547      -0.44159730 </v>
   <v>       0.60158484       0.15149991       0.05455840 </v>
   <v>      -3.69532536      -1.24491275       2.50131402 </v>
   <v>      -0.39927492      -0.28820099       0.45134549 </v>
  </varray>
  <varray name="stress" >
   <v>      -1.02804808      -0.08900195       0.51585746 </v>
   <v>      -0.08900195      -0.31354877       0.21735768 </v>
   <v>       0.51585746       0.21735768      -1.19961767 </v>
  </varray>
  <energy>
   <i name="e_fr_energy">    -86.93249947 </i>
   <i name="e_wo_entrp">    -86.93249947 </i>
   <i name="e_0_energy">     -0.00000000 </i>
  </energy>
  <time name="totalsc">    4.97    5.11</time>
 </calculation>
 <calculation>
  <scstep>
   <time name="dav">    0.53    0.53</time>
   <time name="total">    0.67    0.67</time>
   <dipole>
    <v name="dipole">      0.41862509       0.22416370      -0.15975904 </v>
    <i name="Tr[quadrupol]">     17.08087057 </i>
    <i name="Echarged">      0.00000000 </i>
    <i name="Edipol_quadrupol">      0.00000000 </i>
    <i name="Eion">      0.00000000 </i>
   </dipole>
   <energy>
    <i name="alphaZ">      1.01147773 </i>
    <i name="ewald">   3085.60301162 </i>
    <i name="hartreedc">  -5456.58854351 </i>
    <i name="XCdc">    205.13793361 </i>
    <i name="pawpsdc">   3374.69404887 </i>
    <i name="pawaedc">  -3387.26420849 </i>
    <i name="eentropy">     -0.00000000 </i>
    <i name="bandstr">   -653.02556816 </i>
    <i name="atom">   2743.32276819 </i>
    <i name="e_fr_energy">    -87.10908014 </i>
    <i name="e_wo_entrp">    -87.10908014 </i>
    <i name="e_0_energy">    -87.10908014 </i>
   </energy>
  </scstep>
  <scstep>
   <time name="diag">    0.09    0.09</time>
   <time name="diis">    0.50    0.50</time>
   <time name="orth">    0.01    0.01</time>
   <time name="total">    0.75    0.75</time>
   <dipole>
    <v name="dipole">      0.41240747       0.22204843      -0.15086509 </v>
    <i name="Tr[quadrupol]">     17.14665196 </i>
    <i name="Echarged">      0.00000000 </i>
    <i name="Edipol_quadrupol">      0.00000000 </i>
    <i name="Eion">      0.00000000 </i>
   </dipole>
   <energy>
    <i name="e_fr_energy">    -87.05753034 </i>
    <i name="e_wo_entrp">    -87.05753034 </i>
    <i name="e_0_energy">    -87.05753034 </i>
   </energy>
  </scstep>
  <scstep>
   <time name="diag">    0.09    0.09</time>
   <time name="diis">    0.56    0.56</time>
   <time name="orth">    0.01    0.01</time>
   <time name="total">    0.81    0.81</time>
   <dipole>
    <v name="dipole">      0.40264311       0.21905337      -0.13885636 </v>
    <i name="Tr[quadrupol]">     17.23783449 </i>
    <i name="Echarged">      0.00000000 </i>
    <i name="Edipol_quadrupol">      0.00000000 </i>
    <i name="Eion">      0.00000000 </i>
   </dipole>
   <energy>
    <i name="e_fr_energy">    -87.03671590 </i>
    <i name="e_wo_entrp">    -87.03671590 </i>
    <i name="e_0_energy">    -87.03671590 </i>
   </energy>
  </scstep>
  <scstep>
   <time name="diag">    0.09    0.09</time>
   <time name="diis">    0.59    0.59</time>
   <time name="orth">    0.01    0.01</time>
   <time name="total">    0.83    0.83</time>
   <dipole>
    <v name="dipole">      0.40112293       0.21904073      -0.13821911 </v>
    <i name="Tr[quadrupol]">     17.24305524 </i>
    <i name="Echarged">      0.00000000 </i>
    <i name="Edipol_quadrupol">      0.00000000 </i>
    <i name="Eion">      0.00000000 </i>
   </dipole>
   <energy>
    <i name="e_fr_energy">    -87.03671636 </i>
    <i name="e_wo_entrp">    -87.03671636 </i>
    <i name="e_0_energy">    -87.03671636 </i>
   </energy>
  </scstep>
  <scstep>
   <time name="diag">    0.09    0.09</time>
   <time name="diis">    0.50    0.53</time>
   <time name="orth">    0.01    0.01</time>
   <time name="total">    0.75    0.77</time>
   <dipole>
    <v name="dipole">      0.39606965       0.21867091      -0.13500302 </v>
    <i name="Tr[quadrupol]">     17.26957415 </i>
    <i name="Echarged">      0.00000000 </i>
    <i name="Edipol_quadrupol">      0.00000000 </i>
    <i name="Eion">      0.00000000 </i>
   </dipole>
   <energy>
    <i name="e_fr_energy">    -87.03714455 </i>
    <i name="e_wo_entrp">    -87.03714455 </i>
    <i name="e_0_energy">    -87.03714455 </i>
   </energy>
  </scstep>
  <scstep>
   <time name="diag">    0.09    0.09</time>
   <time name="diis">    0.57    0.58</time>
   <time name="orth">    0.01    0.01</time>
   <time name="total">    0.82    0.82</time>
   <dipole>
    <v name="dipole">      0.39451014       0.21838036      -0.13393687 </v>
    <i name="Tr[quadrupol]">     17.28065335 </i>
    <i name="Echarged">      0.00000000 </i>
    <i name="Edipol_quadrupol">      0.00000000 </i>
    <i name="Eion">      0.00000000 </i>
   </dipole>
   <energy>
    <i name="e_fr_energy">    -87.03709037 </i>
    <i name="e_wo_entrp">    -87.03709037 </i>
    <i name="e_0_energy">    -87.03709037 </i>
   </energy>
  </scstep>
  <scstep>
   <time name="diag">    0.09    0.09</time>
   <time name="diis">    0.45    0.45</time>
   <time name="orth">    0.01    0.01</time>
   <time name="total">    0.69    0.69</time>
   <dipole>
    <v name="dipole">      0.39060333       0.21799632      -0.13197254 </v>
    <i name="Tr[quadrupol]">     17.30228662 </i>
    <i name="Echarged">      0.00000000 </i>
    <i name="Edipol_quadrupol">      0.00000000 </i>
    <i name="Eion">      0.00000000 </i>
   </dipole>
   <energy>
    <i name="e_fr_energy">    -87.03728049 </i>
    <i name="e_wo_entrp">    -87.03728049 </i>
    <i name="e_0_energy">    -87.03728049 </i>
   </energy>
  </scstep>
  <scstep>
   <time name="diag">    0.09    0.09</time>
   <time name="diis">    0.42    0.43</time>
   <time name="orth">    0.01    0.01</time>
   <time name="total">    0.67    0.68</time>
   <dipole>
    <v name="dipole">      0.38701887       0.21767190      -0.13050154 </v>
    <i name="Tr[quadrupol]">     17.32156887 </i>
    <i name="Echarged">      0.00000000 </i>
    <i name="Edipol_quadrupol">      0.00000000 </i>
    <i name="Eion">      0.00000000 </i>
   </dipole>
   <energy>
    <i name="e_fr_energy">    -87.03741727 </i>
    <i name="e_wo_entrp">    -87.03741727 </i>
    <i name="e_0_energy">    -87.03741727 </i>
   </energy>
  </scstep>
  <scstep>
   <time name="diag">    0.09    0.09</time>
   <time name="diis">    0.44    0.44</time>
   <time name="orth">    0.01    0.01</time>
   <time name="total">    0.68    0.69</time>
   <dipole>
    <v name="dipole">      0.38322069       0.21735593      -0.12915488 </v>
    <i name="Tr[quadrupol]">     17.34154649 </i>
    <i name="Echarged">      0.00000000 </i>
    <i name="Edipol_quadrupol">      0.00000000 </i>
    <i name="Eion">      0.00000000 </i>
   </dipole>
   <energy>
    <i name="e_fr_energy">    -87.03752116 </i>
    <i name="e_wo_entrp">    -87.03752116 </i>
    <i name="e_0_energy">    -87.03752116 </i>
   </energy>
  </scstep>
  <scstep>
   <time name="diag">    0.09    0.09</time>
   <time name="diis">    0.51    0.52</time>
   <time name="orth">    0.01    0.01</time>
   <time name="total">    0.76    0.76</time>
   <dipole>
    <v name="dipole">      0.38077079       0.21724913      -0.12870035 </v>
    <i name="Tr[quadrupol]">     17.35275765 </i>
    <i name="Echarged">      0.00000000 </i>
    <i name="Edipol_quadrupol">      0.00000000 </i>
    <i name="Eion">      0.00000000 </i>
   </dipole>
   <energy>
    <i name="e_fr_energy">    -87.03757801 </i>
    <i name="e_wo_entrp">    -87.03757801 </i>
    <i name="e_0_energy">    -87.03757801 </i>
   </energy>
  </scstep>
  <scstep>
   <time name="diag">    0.09    0.09</time>
   <time name="diis">    0.47    0.47</time>
   <time name="orth">    0.01    0.01</time>
   <time name="total">    0.71    0.71</time>
   <dipole>
    <v name="dipole">      0.37947283       0.21721069      -0.12853999 </v>
    <i name="Tr[quadrupol]">     17.35827634 </i>
    <i name="Echarged">      0.00000000 </i>
    <i name="Edipol_quadrupol">      0.00000000 </i>
    <i name="Eion">      0.00000000 </i>
   </dipole>
   <energy>
    <i name="e_fr_energy">    -87.03760107 </i>
    <i name="e_wo_entrp">    -87.03760107 </i>
    <i name="e_0_energy">    -87.03760107 </i>
   </energy>
  </scstep>
  <scstep>
   <time name="diag">    0.09    0.09</time>
   <time name="diis">    0.44    0.44</time>
   <time name="orth">    0.01    0.01</time>
   <time name="total">    0.69    0.69</time>
   <dipole>
    <v name="dipole">      0.37883994       0.21718237      -0.12844781 </v>
    <i name="Tr[quadrupol]">     17.36108292 </i>
    <i name="Echarged">      0.00000000 </i>
    <i name="Edipol_quadrupol">      0.00000000 </i>
    <i name="Eion">      0.00000000 </i>
   </dipole>
   <energy>
    <i name="e_fr_energy">    -87.03761050 </i>
    <i name="e_wo_entrp">    -87.03761050 </i>
    <i name="e_0_energy">    -87.03761050 </i>
   </energy>
  </scstep>
  <scstep>
   <time name="diag">    0.09    0.09</time>
   <time name="diis">    0.38    0.38</time>
   <time name="orth">    0.01    0.01</time>
   <time name="total">    0.63    0.63</time>
   <dipole>
    <v name="dipole">      0.37788442       0.21714525      -0.12831425 </v>
    <i name="Tr[quadrupol]">     17.36509507 </i>
    <i name="Echarged">      0.00000000 </i>
    <i name="Edipol_quadrupol">      0.00000000 </i>
    <i name="Eion">      0.00000000 </i>
   </dipole>
   <energy>
    <i name="e_fr_energy">    -87.03762325 </i>
    <i name="e_wo_entrp">    -87.03762325 </i>
    <i name="e_0_energy">    -87.03762325 </i>
   </energy>
  </scstep>
  <scstep>
   <time name="diag">    0.09    0.09</time>
   <time name="diis">    0.40    0.40</time>
   <time name="orth">    0.01    0.01</time>
   <time name="total">    0.65    0.65</time>
   <dipole>
    <v name="dipole">      0.37765833       0.21713036      -0.12824162 </v>
    <i name="Tr[quadrupol]">     17.36608379 </i>
    <i name="Echarged">      0.00000000 </i>
    <i name="Edipol_quadrupol">      0.00000000 </i>
    <i name="Eion">      0.00000000 </i>
   </dipole>
   <energy>
    <i name="e_fr_energy">    -87.03762643 </i>
    <i name="e_wo_entrp">    -87.03762643 </i>
    <i name="e_0_energy">    -87.03762643 </i>
   </energy>
  </scstep>
  <scstep>
   <time name="diag">    0.09    0.09</time>
   <time name="diis">    0.38    0.38</time>
   <time name="orth">    0.01    0.01</time>
   <time name="total">    0.63    0.63</time>
   <dipole>
    <v name="dipole">      0.37729500       0.21709759      -0.12807151 </v>
    <i name="Tr[quadrupol]">     17.36776774 </i>
    <i name="Echarged">      0.00000000 </i>
    <i name="Edipol_quadrupol">      0.00000000 </i>
    <i name="Eion">      0.00000000 </i>
   </dipole>
   <energy>
    <i name="e_fr_energy">    -87.03763103 </i>
    <i name="e_wo_entrp">    -87.03763103 </i>
    <i name="e_0_energy">    -87.03763103 </i>
   </energy>
  </scstep>
  <scstep>
   <time name="diag">    0.09    0.09</time>
   <time name="diis">    0.41    0.41</time>
   <time name="orth">    0.01    0.01</time>
   <time name="total">    0.62    0.62</time>
   <dipole>
    <v name="dipole">      0.37725619       0.21709046      -0.12803341 </v>
    <i name="Tr[quadrupol]">     17.36799242 </i>
    <i name="Echarged">      0.00000000 </i>
    <i name="Edipol_quadrupol">      0.00000000 </i>
    <i name="Eion">      0.00000000 </i>
   </dipole>
   <energy>
    <i name="alphaZ">      1.01132999 </i>
    <i name="ewald">   3085.60301162 </i>
    <i name="hartreedc">  -5453.71819803 </i>
    <i name="XCdc">    205.09080249 </i>
    <i name="pawpsdc">   3369.21215305 </i>
    <i name="pawaedc">  -3381.77186723 </i>
    <i name="eentropy">     -0.00000000 </i>
    <i name="bandstr">   -655.78763192 </i>
    <i name="atom">   2743.32276819 </i>
    <i name="e_fr_energy">    -87.03763185 </i>
    <i name="e_wo_entrp">    -87.03763185 </i>
    <i name="e_0_energy">    -87.03763185 </i>
   </energy>
  </scstep>
  <structure>
   <crystal>
    <varray name="basis" >
     <v>      20.00000118       0.00000000       0.00000000 </v>
     <v>       0.00000000      20.00000118       0.00000000 </v>
     <v>       0.00000000       0.00000000      20.00000118 </v>
    </varray>
    <i name="volume">   8000.00141508 </i>
    <varray name="rec_basis" >
     <v>       0.05000000      -0.00000000      -0.00000000 </v>
     <v>       0.00000000       0.05000000      -0.00000000 </v>
     <v>       0.00000000       0.00000000       0.05000000 </v>
    </varray>
   </crystal>
   <varray name="positions" >
    <v>       0.51691942       0.48225669       0.42450631 </v>
    <v>       0.58257552       0.51748879       0.44271280 </v>
    <v>       0.50956060       0.51455461       0.57598637 </v>
    <v>       0.50878826       0.44248746       0.55189523 </v>
    <v>       0.61060707       0.48865074       0.54302248 </v>
    <v>       0.68208105       0.47595544       0.51539693 </v>
    <v>       0.41825390       0.43811931       0.47812070 </v>
    <v>       0.44817661       0.37071680       0.45329053 </v>
    <v>       0.32041807       0.49757797       0.53734238 </v>
    <v>       0.39099561       0.53823386       0.50638843 </v>
    <v>       0.49547259       0.56958241       0.47775070 </v>
    <v>       0.47029203       0.63321446       0.51582627 </v>
    <v>       0.53928517       0.52533331       0.42125944 </v>
    <v>       0.53154665       0.47183807       0.58333509 </v>
    <v>       0.64369204       0.50450833       0.51031597 </v>
    <v>       0.46053502       0.41408419       0.47018895 </v>
    <v>       0.35964404       0.50097592       0.49816828 </v>
    <v>       0.46699688       0.58516548       0.51562299 </v>
   </varray>
  </structure>
  <varray name="forces" >
   <v>      -0.30714797      -0.43007179       0.01469790 </v>
   <v>       0.52388294      -0.01728453       0.25360471 </v>
   <v>      -0.18813380       0.48376602      -0.02576984 </v>
   <v>      -0.19975646      -0.37079213      -0.31589024 </v>
   <v>      -0.48349605      -0.13121353       0.37593011 </v>
   <v>       0.39326848      -0.24232920      -0.02863124 </v>
   <v>      -0.49529624       0.33132157       0.17472088 </v>
   <v>      -0.03591751      -0.41382849      -0.15431474 </v>
   <v>       3.37634978       0.60221344      -2.92327150 </v>
   <v>      -0.07259718       0.40235859       0.54336166 </v>
   <v>       0.34946534      -0.29163691      -0.47865656 </v>
   <v>      -0.03844545       0.43773667       0.06714312 </v>
   <v>      -0.19156391       0.45993592      -0.26660063 </v>
   <v>       0.42718048      -0.12078538       0.35803999 </v>
   <v>       0.04137341       0.35969792      -0.36110101 </v>
   <v>       0.48130471       0.13123974       0.04062005 </v>
   <v>      -3.22977016      -0.95470586       2.34617523 </v>
   <v>      -0.35070041      -0.23562205       0.37994211 </v>
  </varray>
  <varray name="stress" >
   <v>      -1.08943907      -0.10677325       0.46815607 </v>
   <v>      -0.10677325      -0.44169013       0.19199831 </v>
   <v>       0.46815607       0.19199832      -1.19899804 </v>
  </varray>
  <energy>
   <i name="e_fr_energy">    -87.03763185 </i>
   <i name="e_wo_entrp">    -87.03763185 </i>
   <i name="e_0_energy">     -0.00000000 </i>
  </energy>
  <time name="totalsc">   12.03   12.23</time>
 </calculation>
 <calculation>
  <scstep>
   <time name="dav">    0.53    0.53</time>
   <time name="total">    0.67    0.67</time>
   <dipole>
    <v name="dipole">      0.43176938       0.22626558      -0.17420039 </v>
    <i name="Tr[quadrupol]">     16.96833172 </i>
    <i name="Echarged">      0.00000000 </i>
    <i name="Edipol_quadrupol">      0.00000000 </i>
    <i name="Eion">      0.00000000 </i>
   </dipole>
   <energy>
    <i name="alphaZ">      1.01177869 </i>
    <i name="ewald">   3080.83225331 </i>
    <i name="hartreedc">  -5453.71783729 </i>
    <i name="XCdc">    205.09079718 </i>
    <i name="pawpsdc">   3369.21239775 </i>
    <i name="pawaedc">  -3381.77211379 </i>
    <i name="eentropy">     -0.00000000 </i>
    <i name="bandstr">   -651.34997370 </i>
    <i name="atom">   2743.32276819 </i>
    <i name="e_fr_energy">    -87.36992965 </i>
    <i name="e_wo_entrp">    -87.36992965 </i>
    <i name="e_0_energy">    -87.36992965 </i>
   </energy>
  </scstep>
  <scstep>
   <time name="diag">    0.10    0.10</time>
   <time name="diis">    0.51    0.51</time>
   <time name="orth">    0.01    0.01</time>
   <time name="total">    0.76    0.76</time>
   <dipole>
    <v name="dipole">      0.42192073       0.22281976      -0.16001261 </v>
    <i name="Tr[quadrupol]">     17.07375313 </i>
    <i name="Echarged">      0.00000000 </i>
    <i name="Edipol_quadrupol">      0.00000000 </i>
    <i name="Eion">      0.00000000 </i>
   </dipole>
   <energy>
    <i name="e_fr_energy">    -87.23527482 </i>
    <i name="e_wo_entrp">    -87.23527482 </i>
    <i name="e_0_energy">    -87.23527482 </i>
   </energy>
  </scstep>
  <scstep>
   <time name="diag">    0.09    0.09</time>
   <time name="diis">    0.57    0.58</time>
   <time name="orth">    0.01    0.01</time>
   <time name="total">    0.82    0.83</time>
   <dipole>
    <v name="dipole">      0.40633795       0.21788527      -0.14070190 </v>
    <i name="Tr[quadrupol]">     17.22081468 </i>
    <i name="Echarged">      0.00000000 </i>
    <i name="Edipol_quadrupol">      0.00000000 </i>
    <i name="Eion">      0.00000000 </i>
   </dipole>
   <energy>
    <i name="e_fr_energy">    -87.18098074 </i>
    <i name="e_wo_entrp">    -87.18098074 </i>
    <i name="e_0_energy">    -87.18098074 </i>
   </energy>
  </scstep>
  <scstep>
   <time name="diag">    0.09    0.09</time>
   <time name="diis">    0.57    0.58</time>
   <time name="orth">    0.01    0.01</time>
   <time name="total">    0.82    0.82</time>
   <dipole>
    <v name="dipole">      0.40395158       0.21789163      -0.13956974 </v>
    <i name="Tr[quadrupol]">     17.22951622 </i>
    <i name="Echarged">      0.00000000 </i>
    <i name="Edipol_quadrupol">      0.00000000 </i>
    <i name="Eion">      0.00000000 </i>
   </dipole>
   <energy>
    <i name="e_fr_energy">    -87.18081881 </i>
    <i name="e_wo_entrp">    -87.18081881 </i>
    <i name="e_0_energy">    -87.18081881 </i>
   </energy>
  </scstep>
  <scstep>
   <time name="diag">    0.09    0.09</time>
   <time name="diis">    0.50    0.50</time>
   <time name="orth">    0.01    0.01</time>
   <time name="total">    0.75    0.75</time>
   <dipole>
    <v name="dipole">      0.39687787       0.21740238      -0.13491411 </v>
    <i name="Tr[quadrupol]">     17.26707921 </i>
    <i name="Echarged">      0.00000000 </i>
    <i name="Edipol_quadrupol">      0.00000000 </i>
    <i name="Eion">      0.00000000 </i>
   </dipole>
   <energy>
    <i name="e_fr_energy">    -87.18167392 </i>
    <i name="e_wo_entrp">    -87.18167392 </i>
    <i name="e_0_energy">    -87.18167392 </i>
   </energy>
  </scstep>
  <scstep>
   <time name="diag">    0.09    0.09</time>
   <time name="diis">    0.56    0.56</time>
   <time name="orth">    0.01    0.01</time>
   <time name="total">    0.81    0.81</time>
   <dipole>
    <v name="dipole">      0.39354662       0.21684173      -0.13266088 </v>
    <i name="Tr[quadrupol]">     17.28950118 </i>
    <i name="Echarged">      0.00000000 </i>
    <i name="Edipol_quadrupol">      0.00000000 </i>
    <i name="Eion">      0.00000000 </i>
   </dipole>
   <energy>
    <i name="e_fr_energy">    -87.18158820 </i>
    <i name="e_wo_entrp">    -87.18158820 </i>
    <i name="e_0_energy">    -87.18158820 </i>
   </energy>
  </scstep>
  <scstep>
   <time name="diag">    0.09    0.09</time>
   <time name="diis">    0.51    0.51</time>
   <time name="orth">    0.01    0.01</time>
   <time name="total">    0.75    0.75</time>
   <dipole>
    <v name="dipole">      0.38755663       0.21626305      -0.12955899 </v>
    <i name="Tr[quadrupol]">     17.32274975 </i>
    <i name="Echarged">      0.00000000 </i>
    <i name="Edipol_quadrupol">      0.00000000 </i>
    <i name="Eion">      0.00000000 </i>
   </dipole>
   <energy>
    <i name="e_fr_energy">    -87.18195509 </i>
    <i name="e_wo_entrp">    -87.18195509 </i>
    <i name="e_0_energy">    -87.18195509 </i>
   </energy>
  </scstep>
  <scstep>
   <time name="diag">    0.09    0.09</time>
   <time name="diis">    0.47    0.47</time>
   <time name="orth">    0.01    0.01</time>
   <time name="total">    0.72    0.72</time>
   <dipole>
    <v name="dipole">      0.38131501       0.21568029      -0.12691864 </v>
    <i name="Tr[quadrupol]">     17.35680833 </i>
    <i name="Echarged">      0.00000000 </i>
    <i name="Edipol_quadrupol">      0.00000000 </i>
    <i name="Eion">      0.00000000 </i>
   </dipole>
   <energy>
    <i name="e_fr_energy">    -87.18223438 </i>
    <i name="e_wo_entrp">    -87.18223438 </i>
    <i name="e_0_energy">    -87.18223438 </i>
   </energy>
  </scstep>
  <scstep>
   <time name="diag">    0.09    0.09</time>
   <time name="diis">    0.49    0.49</time>
   <time name="orth">    0.01    0.01</time>
   <time name="total">    0.74    0.74</time>
   <dipole>
    <v name="dipole">      0.37514339       0.21516219      -0.12474535 </v>
    <i name="Tr[quadrupol]">     17.38931341 </i>
    <i name="Echarged">      0.00000000 </i>
    <i name="Edipol_quadrupol">      0.00000000 </i>
    <i name="Eion">      0.00000000 </i>
   </dipole>
   <energy>
    <i name="e_fr_energy">    -87.18243059 </i>
    <i name="e_wo_entrp">    -87.18243059 </i>
    <i name="e_0_energy">    -87.18243059 </i>
   </energy>
  </scstep>
  <scstep>
   <time name="diag">    0.09    0.09</time>
   <time name="diis">    0.50    0.50</time>
   <time name="orth">    0.01    0.01</time>
   <time name="total">    0.75    0.75</time>
   <dipole>
    <v name="dipole">      0.37162558       0.21502120      -0.12413729 </v>
    <i name="Tr[quadrupol]">     17.40523457 </i>
    <i name="Echarged">      0.00000000 </i>
    <i name="Edipol_quadrupol">      0.00000000 </i>
    <i name="Eion">      0.00000000 </i>
   </dipole>
   <energy>
    <i name="e_fr_energy">    -87.18252560 </i>
    <i name="e_wo_entrp">    -87.18252560 </i>
    <i name="e_0_energy">    -87.18252560 </i>
   </energy>
  </scstep>
  <scstep>
   <time name="diag">    0.09    0.09</time>
   <time name="diis">    0.50    0.50</time>
   <time name="orth">    0.01    0.01</time>
   <time name="total">    0.74    0.74</time>
   <dipole>
    <v name="dipole">      0.36944477       0.21495903      -0.12387105 </v>
[...]
   <dipole>
    <v name="dipole">      0.32992530       0.20722436      -0.10790202 </v>
    <i name="Tr[quadrupol]">     17.61651317 </i>
    <i name="Echarged">      0.00000000 </i>
    <i name="Edipol_quadrupol">      0.00000000 </i>
    <i name="Eion">      0.00000000 </i>
   </dipole>
   <energy>
    <i name="alphaZ">      1.01188466 </i>
    <i name="ewald">   3068.22711662 </i>
    <i name="hartreedc">  -5436.72571389 </i>
    <i name="XCdc">    204.85643957 </i>
    <i name="pawpsdc">   3344.10407367 </i>
    <i name="pawaedc">  -3356.61479429 </i>
    <i name="eentropy">     -0.00000000 </i>
    <i name="bandstr">   -655.56626567 </i>
    <i name="atom">   2743.32276819 </i>
    <i name="e_fr_energy">    -87.38449114 </i>
    <i name="e_wo_entrp">    -87.38449114 </i>
    <i name="e_0_energy">    -87.38449114 </i>
   </energy>
  </scstep>
  <structure>
   <crystal>
    <varray name="basis" >
     <v>      20.00000118       0.00000000       0.00000000 </v>
     <v>       0.00000000      20.00000118       0.00000000 </v>
     <v>       0.00000000       0.00000000      20.00000118 </v>
    </varray>
    <i name="volume">   8000.00141508 </i>
    <varray name="rec_basis" >
     <v>       0.05000000      -0.00000000      -0.00000000 </v>
     <v>       0.00000000       0.05000000      -0.00000000 </v>
     <v>       0.00000000       0.00000000       0.05000000 </v>
    </varray>
   </crystal>
   <varray name="positions" >
    <v>       0.51668387       0.48190633       0.42452052 </v>
    <v>       0.58298569       0.51746485       0.44291100 </v>
    <v>       0.50940076       0.51494106       0.57595731 </v>
    <v>       0.50861984       0.44219749       0.55163739 </v>
    <v>       0.61023974       0.48853895       0.54332130 </v>
    <v>       0.68239348       0.47575637       0.51538625 </v>
    <v>       0.41786468       0.43837742       0.47824655 </v>
    <v>       0.44813625       0.37038343       0.45316474 </v>
    <v>       0.32281854       0.49799952       0.53525118 </v>
    <v>       0.39109506       0.53868347       0.50679638 </v>
    <v>       0.49573899       0.56937544       0.47738846 </v>
    <v>       0.47027418       0.63356962       0.51586949 </v>
    <v>       0.53912920       0.52571256       0.42104156 </v>
    <v>       0.53189872       0.47173591       0.58363511 </v>
    <v>       0.64372015       0.50480991       0.51001870 </v>
    <v>       0.46094055       0.41418573       0.47022578 </v>
    <v>       0.35717103       0.50013425       0.49983221 </v>
    <v>       0.46672980       0.58497154       0.51592591 </v>
   </varray>
  </structure>
  <varray name="forces" >
   <v>      -0.04879337       0.10631658      -0.02493204 </v>
   <v>       0.01639714       0.08731645       0.00895341 </v>
   <v>       0.10297602      -0.05346241       0.07462802 </v>
   <v>       0.09780670      -0.01337760       0.08038086 </v>
   <v>      -0.10892017       0.07121651      -0.02654210 </v>
   <v>      -0.03495078       0.07932421      -0.10196762 </v>
   <v>       0.00682762       0.01471703       0.09262490 </v>
   <v>       0.10518011       0.07627599       0.03984475 </v>
   <v>       0.85630057       0.35437038      -0.42314720 </v>
   <v>      -1.15520272      -0.89015638       0.24687867 </v>
   <v>       0.07319019      -0.19110730      -0.12462324 </v>
   <v>      -0.10670834      -0.10243405       0.07974987 </v>
   <v>       0.04116301      -0.14946989       0.07601641 </v>
   <v>      -0.13986155       0.06320772      -0.16242771 </v>
   <v>       0.04689126      -0.16182335       0.11131255 </v>
   <v>      -0.23674420       0.00511732      -0.04339004 </v>
   <v>       0.56074772       0.62337410       0.13173082 </v>
   <v>      -0.07629921       0.08059469      -0.03509030 </v>
  </varray>
  <varray name="stress" >
   <v>      -1.33691753      -0.20016067       0.05385226 </v>
   <v>      -0.20016067      -1.18916966       0.05306167 </v>
   <v>       0.05385226       0.05306167      -1.04582457 </v>
  </varray>
  <energy>
   <i name="e_fr_energy">    -87.38449114 </i>
   <i name="e_wo_entrp">    -87.38449114 </i>
   <i name="e_0_energy">     -0.00000000 </i>
  </energy>
  <time name="totalsc">   11.36   11.56</time>
 </calculation>
 <calculation>
  <scstep>
   <time name="dav">    0.57    0.57</time>
   <time name="total">    0.71    0.71</time>
   <dipole>
    <v name="dipole">      0.33700465       0.20841666      -0.11390122 </v>
    <i name="Tr[quadrupol]">     17.56273298 </i>
    <i name="Echarged">      0.00000000 </i>
    <i name="Edipol_quadrupol">      0.00000000 </i>
    <i name="Eion">      0.00000000 </i>
   </dipole>
   <energy>
    <i name="alphaZ">      1.01196049 </i>
    <i name="ewald">   3067.69571063 </i>
    <i name="hartreedc">  -5436.72624260 </i>
    <i name="XCdc">    204.85647809 </i>
    <i name="pawpsdc">   3344.10530040 </i>
    <i name="pawaedc">  -3356.61603665 </i>
    <i name="eentropy">     -0.00000000 </i>
    <i name="bandstr">   -655.03754488 </i>
    <i name="atom">   2743.32276819 </i>
    <i name="e_fr_energy">    -87.38760632 </i>
    <i name="e_wo_entrp">    -87.38760632 </i>
    <i name="e_0_energy">    -87.38760632 </i>
   </energy>
  </scstep>
  <scstep>
   <time name="diag">    0.09    0.09</time>
   <time name="diis">    0.48    0.49</time>
   <time name="orth">    0.01    0.01</time>
   <time name="total">    0.73    0.74</time>
   <dipole>
    <v name="dipole">      0.33574822       0.20793741      -0.11213778 </v>
    <i name="Tr[quadrupol]">     17.57641253 </i>
    <i name="Echarged">      0.00000000 </i>
    <i name="Edipol_quadrupol">      0.00000000 </i>
    <i name="Eion">      0.00000000 </i>
   </dipole>
   <energy>
    <i name="e_fr_energy">    -87.38531204 </i>
    <i name="e_wo_entrp">    -87.38531204 </i>
    <i name="e_0_energy">    -87.38531204 </i>
   </energy>
  </scstep>
  <scstep>
   <time name="diag">    0.09    0.09</time>
   <time name="diis">    0.58    0.58</time>
   <time name="orth">    0.01    0.01</time>
   <time name="total">    0.82    0.83</time>
   <dipole>
    <v name="dipole">      0.33367418       0.20724684      -0.10960503 </v>
    <i name="Tr[quadrupol]">     17.59642395 </i>
    <i name="Echarged">      0.00000000 </i>
    <i name="Edipol_quadrupol">      0.00000000 </i>
    <i name="Eion">      0.00000000 </i>
   </dipole>
   <energy>
    <i name="e_fr_energy">    -87.38432055 </i>
    <i name="e_wo_entrp">    -87.38432055 </i>
    <i name="e_0_energy">    -87.38432055 </i>
   </energy>
  </scstep>
  <scstep>
   <time name="diag">    0.09    0.09</time>
   <time name="diis">    0.60    0.60</time>
   <time name="orth">    0.01    0.01</time>
   <time name="total">    0.84    0.84</time>
   <dipole>
    <v name="dipole">      0.33336386       0.20726502      -0.10943599 </v>
    <i name="Tr[quadrupol]">     17.59759666 </i>
    <i name="Echarged">      0.00000000 </i>
    <i name="Edipol_quadrupol">      0.00000000 </i>
    <i name="Eion">      0.00000000 </i>
   </dipole>
   <energy>
    <i name="e_fr_energy">    -87.38432055 </i>
    <i name="e_wo_entrp">    -87.38432055 </i>
    <i name="e_0_energy">    -87.38432055 </i>
   </energy>
  </scstep>
  <scstep>
   <time name="diag">    0.09    0.09</time>
   <time name="diis">    0.50    0.50</time>
   <time name="orth">    0.01    0.01</time>
   <time name="total">    0.74    0.74</time>
   <dipole>
    <v name="dipole">      0.33255956       0.20721926      -0.10888507 </v>
    <i name="Tr[quadrupol]">     17.60202498 </i>
    <i name="Echarged">      0.00000000 </i>
    <i name="Edipol_quadrupol">      0.00000000 </i>
    <i name="Eion">      0.00000000 </i>
   </dipole>
   <energy>
    <i name="e_fr_energy">    -87.38434294 </i>
    <i name="e_wo_entrp">    -87.38434294 </i>
    <i name="e_0_energy">    -87.38434294 </i>
   </energy>
  </scstep>
  <scstep>
   <time name="diag">    0.09    0.09</time>
   <time name="diis">    0.51    0.51</time>
   <time name="orth">    0.01    0.01</time>
   <time name="total">    0.76    0.76</time>
   <dipole>
    <v name="dipole">      0.33198476       0.20713041      -0.10850611 </v>
    <i name="Tr[quadrupol]">     17.60577053 </i>
    <i name="Echarged">      0.00000000 </i>
    <i name="Edipol_quadrupol">      0.00000000 </i>
    <i name="Eion">      0.00000000 </i>
   </dipole>
   <energy>
    <i name="e_fr_energy">    -87.38434862 </i>
    <i name="e_wo_entrp">    -87.38434862 </i>
    <i name="e_0_energy">    -87.38434862 </i>
   </energy>
  </scstep>
  <scstep>
   <time name="diag">    0.10    0.10</time>
   <time name="diis">    0.44    0.44</time>
   <time name="orth">    0.01    0.01</time>
   <time name="total">    0.69    0.69</time>
   <dipole>
    <v name="dipole">      0.33116348       0.20706038      -0.10806298 </v>
    <i name="Tr[quadrupol]">     17.61034545 </i>
    <i name="Echarged">      0.00000000 </i>
    <i name="Edipol_quadrupol">      0.00000000 </i>
    <i name="Eion">      0.00000000 </i>
   </dipole>
   <energy>
    <i name="e_fr_energy">    -87.38436599 </i>
    <i name="e_wo_entrp">    -87.38436599 </i>
    <i name="e_0_energy">    -87.38436599 </i>
   </energy>
  </scstep>
  <scstep>
   <time name="diag">    0.09    0.09</time>
   <time name="diis">    0.42    0.42</time>
   <time name="orth">    0.01    0.01</time>
   <time name="total">    0.67    0.67</time>
   <dipole>
    <v name="dipole">      0.33034783       0.20698577      -0.10770834 </v>
    <i name="Tr[quadrupol]">     17.61484216 </i>
    <i name="Echarged">      0.00000000 </i>
    <i name="Edipol_quadrupol">      0.00000000 </i>
    <i name="Eion">      0.00000000 </i>
   </dipole>
   <energy>
    <i name="e_fr_energy">    -87.38438199 </i>
    <i name="e_wo_entrp">    -87.38438199 </i>
    <i name="e_0_energy">    -87.38438199 </i>
   </energy>
  </scstep>
  <scstep>
   <time name="diag">    0.09    0.09</time>
   <time name="diis">    0.39    0.40</time>
   <time name="orth">    0.01    0.01</time>
   <time name="total">    0.64    0.64</time>
   <dipole>
    <v name="dipole">      0.32946724       0.20690561      -0.10738259 </v>
    <i name="Tr[quadrupol]">     17.61955264 </i>
    <i name="Echarged">      0.00000000 </i>
    <i name="Edipol_quadrupol">      0.00000000 </i>
    <i name="Eion">      0.00000000 </i>
   </dipole>
   <energy>
    <i name="e_fr_energy">    -87.38439434 </i>
    <i name="e_wo_entrp">    -87.38439434 </i>
    <i name="e_0_energy">    -87.38439434 </i>
   </energy>
  </scstep>
  <scstep>
   <time name="diag">    0.09    0.10</time>
   <time name="diis">    0.38    0.38</time>
   <time name="orth">    0.01    0.01</time>
   <time name="total">    0.63    0.63</time>
   <dipole>
    <v name="dipole">      0.32896340       0.20687943      -0.10727794 </v>
    <i name="Tr[quadrupol]">     17.62190696 </i>
    <i name="Echarged">      0.00000000 </i>
    <i name="Edipol_quadrupol">      0.00000000 </i>
    <i name="Eion">      0.00000000 </i>
   </dipole>
   <energy>
    <i name="e_fr_energy">    -87.38440062 </i>
    <i name="e_wo_entrp">    -87.38440062 </i>
    <i name="e_0_energy">    -87.38440062 </i>
   </energy>
  </scstep>
  <scstep>
   <time name="diag">    0.09    0.10</time>
   <time name="diis">    0.39    0.39</time>
   <time name="orth">    0.01    0.01</time>
   <time name="total">    0.64    0.65</time>
   <dipole>
    <v name="dipole">      0.32864765       0.20686608      -0.10722403 </v>
    <i name="Tr[quadrupol]">     17.62332295 </i>
    <i name="Echarged">      0.00000000 </i>
    <i name="Edipol_quadrupol">      0.00000000 </i>
    <i name="Eion">      0.00000000 </i>
   </dipole>
   <energy>
    <i name="e_fr_energy">    -87.38440369 </i>
    <i name="e_wo_entrp">    -87.38440369 </i>
    <i name="e_0_energy">    -87.38440369 </i>
   </energy>
  </scstep>
  <scstep>
   <time name="diag">    0.09    0.09</time>
   <time name="diis">    0.42    0.42</time>
   <time name="orth">    0.01    0.01</time>
   <time name="total">    0.67    0.67</time>
   <dipole>
    <v name="dipole">      0.32840757       0.20685973      -0.10720297 </v>
    <i name="Tr[quadrupol]">     17.62429064 </i>
    <i name="Echarged">      0.00000000 </i>
    <i name="Edipol_quadrupol">      0.00000000 </i>
    <i name="Eion">      0.00000000 </i>
   </dipole>
   <energy>
    <i name="e_fr_energy">    -87.38440642 </i>
    <i name="e_wo_entrp">    -87.38440642 </i>
    <i name="e_0_energy">    -87.38440642 </i>
   </energy>
  </scstep>
  <scstep>
   <time name="diag">    0.09    0.09</time>
   <time name="diis">    0.40    0.40</time>
   <time name="orth">    0.01    0.01</time>
   <time name="total">    0.61    0.61</time>
   <dipole>
    <v name="dipole">      0.32829281       0.20685546      -0.10718831 </v>
    <i name="Tr[quadrupol]">     17.62477056 </i>
    <i name="Echarged">      0.00000000 </i>
    <i name="Edipol_quadrupol">      0.00000000 </i>
    <i name="Eion">      0.00000000 </i>
   </dipole>
   <energy>
    <i name="alphaZ">      1.01189900 </i>
    <i name="ewald">   3067.69571063 </i>
    <i name="hartreedc">  -5436.18345017 </i>
    <i name="XCdc">    204.85052826 </i>
    <i name="pawpsdc">   3343.57011368 </i>
    <i name="pawaedc">  -3356.07981448 </i>
    <i name="eentropy">     -0.00000000 </i>
    <i name="bandstr">   -655.57216249 </i>
    <i name="atom">   2743.32276819 </i>
    <i name="e_fr_energy">    -87.38440738 </i>
    <i name="e_wo_entrp">    -87.38440738 </i>
    <i name="e_0_energy">    -87.38440738 </i>
   </energy>
  </scstep>
  <structure>
   <crystal>
    <varray name="basis" >
     <v>      20.00000118       0.00000000       0.00000000 </v>
     <v>       0.00000000      20.00000118       0.00000000 </v>
     <v>       0.00000000       0.00000000      20.00000118 </v>
    </varray>
    <i name="volume">   8000.00141508 </i>
    <varray name="rec_basis" >
     <v>       0.05000000      -0.00000000      -0.00000000 </v>
     <v>       0.00000000       0.05000000      -0.00000000 </v>
     <v>       0.00000000       0.00000000       0.05000000 </v>
    </varray>
   </crystal>
   <varray name="positions" >
    <v>       0.51667593       0.48189452       0.42452100 </v>
    <v>       0.58299952       0.51746404       0.44291768 </v>
    <v>       0.50939537       0.51495408       0.57595633 </v>
    <v>       0.50861416       0.44218771       0.55162870 </v>
    <v>       0.61022735       0.48853518       0.54333137 </v>
    <v>       0.68240401       0.47574966       0.51538589 </v>
    <v>       0.41785156       0.43838612       0.47825079 </v>
    <v>       0.44813489       0.37037219       0.45316050 </v>
    <v>       0.32289945       0.49801372       0.53518070 </v>
    <v>       0.39109841       0.53869862       0.50681013 </v>
    <v>       0.49574797       0.56936847       0.47737625 </v>
    <v>       0.47027358       0.63358159       0.51587095 </v>
    <v>       0.53912394       0.52572534       0.42103422 </v>
    <v>       0.53191058       0.47173247       0.58364522 </v>
    <v>       0.64372110       0.50482007       0.51000868 </v>
    <v>       0.46095422       0.41418915       0.47022702 </v>
    <v>       0.35708768       0.50010589       0.49988829 </v>
    <v>       0.46672080       0.58496501       0.51593612 </v>
   </varray>
  </structure>
  <varray name="forces" >
   <v>      -0.04069701       0.12345600      -0.02623271 </v>
   <v>       0.00043080       0.09071178       0.00125470 </v>
   <v>       0.11232552      -0.07056114       0.07793431 </v>
   <v>       0.10734288      -0.00214260       0.09303466 </v>
   <v>      -0.09728379       0.07762008      -0.03919564 </v>
   <v>      -0.04873625       0.08975453      -0.10443946 </v>
   <v>       0.02292612       0.00456338       0.09006127 </v>
   <v>       0.10981673       0.09203358       0.04611663 </v>
   <v>       0.72735418       0.34499672      -0.29110361 </v>
   <v>      -1.18615819      -0.92579831       0.23991316 </v>
   <v>       0.06462423      -0.18829879      -0.11375244 </v>
   <v>      -0.10909025      -0.11987077       0.08026295 </v>
   <v>       0.04837145      -0.16889884       0.08717020 </v>
   <v>      -0.15812525       0.06916988      -0.17928027 </v>
   <v>       0.04739565      -0.17866904       0.12636986 </v>
   <v>      -0.25984514       0.00095944      -0.04608952 </v>
   <v>       0.72729084       0.67022181       0.00608607 </v>
   <v>      -0.06794251       0.09075229      -0.04811015 </v>
  </varray>
  <varray name="stress" >
   <v>      -1.34028305      -0.20291085       0.03523248 </v>
   <v>      -0.20291085      -1.21286633       0.04898508 </v>
   <v>       0.03523248       0.04898508      -1.03489764 </v>
  </varray>
  <energy>
   <i name="e_fr_energy">    -87.38440738 </i>
   <i name="e_wo_entrp">    -87.38440738 </i>
   <i name="e_0_energy">     -0.00000000 </i>
  </energy>
  <time name="totalsc">    9.82    9.98</time>
 </calculation>
 <calculation>
  <scstep>
   <time name="dav">    0.57    0.57</time>
   <time name="total">    0.71    0.71</time>
   <dipole>
    <v name="dipole">      0.32463923       0.20625076      -0.10415127 </v>
    <i name="Tr[quadrupol]">     17.65218897 </i>
    <i name="Echarged">      0.00000000 </i>
    <i name="Edipol_quadrupol">      0.00000000 </i>
    <i name="Eion">      0.00000000 </i>
   </dipole>
   <energy>
    <i name="alphaZ">      1.01186036 </i>
    <i name="ewald">   3067.96093089 </i>
    <i name="hartreedc">  -5436.18278915 </i>
    <i name="XCdc">    204.85051192 </i>
    <i name="pawpsdc">   3343.56940724 </i>
    <i name="pawaedc">  -3356.07910906 </i>
    <i name="eentropy">     -0.00000000 </i>
    <i name="bandstr">   -655.83894674 </i>
    <i name="atom">   2743.32276819 </i>
    <i name="e_fr_energy">    -87.38536635 </i>
    <i name="e_wo_entrp">    -87.38536635 </i>
    <i name="e_0_energy">    -87.38536635 </i>
   </energy>
  </scstep>
  <scstep>
   <time name="diag">    0.09    0.09</time>
   <time name="diis">    0.49    0.49</time>
   <time name="orth">    0.01    0.01</time>
   <time name="total">    0.73    0.73</time>
   <dipole>
    <v name="dipole">      0.32525150       0.20648770      -0.10501723 </v>
    <i name="Tr[quadrupol]">     17.64544560 </i>
    <i name="Echarged">      0.00000000 </i>
    <i name="Edipol_quadrupol">      0.00000000 </i>
    <i name="Eion">      0.00000000 </i>
   </dipole>
   <energy>
    <i name="e_fr_energy">    -87.38479359 </i>
    <i name="e_wo_entrp">    -87.38479359 </i>
    <i name="e_0_energy">    -87.38479359 </i>
   </energy>
  </scstep>
  <scstep>
   <time name="diag">    0.09    0.09</time>
   <time name="diis">    0.57    0.57</time>
   <time name="orth">    0.01    0.01</time>
   <time name="total">    0.81    0.82</time>
   <dipole>
    <v name="dipole">      0.32626192       0.20682782      -0.10625914 </v>
    <i name="Tr[quadrupol]">     17.63557412 </i>
    <i name="Echarged">      0.00000000 </i>
    <i name="Edipol_quadrupol">      0.00000000 </i>
    <i name="Eion">      0.00000000 </i>
   </dipole>
   <energy>
    <i name="e_fr_energy">    -87.38454657 </i>
    <i name="e_wo_entrp">    -87.38454657 </i>
    <i name="e_0_energy">    -87.38454657 </i>
   </energy>
  </scstep>
  <scstep>
   <time name="diag">    0.09    0.09</time>
   <time name="diis">    0.54    0.54</time>
   <time name="orth">    0.01    0.01</time>
   <time name="total">    0.79    0.79</time>
   <dipole>
    <v name="dipole">      0.32641184       0.20681733      -0.10633627 </v>
    <i name="Tr[quadrupol]">     17.63502491 </i>
    <i name="Echarged">      0.00000000 </i>
    <i name="Edipol_quadrupol">      0.00000000 </i>
    <i name="Eion">      0.00000000 </i>
   </dipole>
   <energy>
    <i name="e_fr_energy">    -87.38454473 </i>
    <i name="e_wo_entrp">    -87.38454473 </i>
    <i name="e_0_energy">    -87.38454473 </i>
   </energy>
  </scstep>
  <scstep>
   <time name="diag">    0.09    0.09</time>
