VaspCalc                                
           1
    20.000000    0.000000    0.000000
     0.000000   20.000000    0.000000
     0.000000    0.000000   20.000000
   H    O 
  12   6
Direct configuration=     1
   0.51696044  0.48231771  0.42450384
   0.58250409  0.51749296  0.44267829
   0.50958844  0.51448731  0.57599144
   0.50881759  0.44253796  0.55194014
   0.61067104  0.48867021  0.54297044
   0.68202664  0.47599011  0.51539879
   0.41832169  0.43807436  0.47809879
   0.44818364  0.37077486  0.45331244
   0.32000000  0.49750456  0.53770659
   0.39097829  0.53815556  0.50631739
   0.49542619  0.56961846  0.47781379
   0.47029514  0.63315261  0.51581875
   0.53931234  0.52526726  0.42129739
   0.53148534  0.47185586  0.58328284
   0.64368714  0.50445581  0.51036774
   0.46046439  0.41406651  0.47018254
   0.36007474  0.50112251  0.49787849
   0.46704339  0.58519926  0.51557024
Direct configuration=     2
   0.51695914  0.48231578  0.42450391
   0.58250635  0.51749283  0.44267938
   0.50958756  0.51448943  0.57599128
   0.50881666  0.44253636  0.55193872
   0.61066902  0.48866959  0.54297208
   0.68202836  0.47598901  0.51539873
   0.41831955  0.43807578  0.47809948
   0.44818342  0.37077302  0.45331174
   0.32001321  0.49750688  0.53769508
   0.39097884  0.53815803  0.50631963
   0.49542765  0.56961732  0.47781179
   0.47029504  0.63315456  0.51581898
   0.53931148  0.52526934  0.42129619
   0.53148728  0.47185530  0.58328449
   0.64368729  0.50445747  0.51036610
   0.46046662  0.41406707  0.47018274
   0.36006113  0.50111788  0.49788764
   0.46704192  0.58519819  0.51557190
Direct configuration=     3
   0.51695705  0.48231266  0.42450404
   0.58251000  0.51749261  0.44268114
   0.50958614  0.51449287  0.57599102
   0.50881516  0.44253378  0.55193642
   0.61066575  0.48866860  0.54297474
   0.68203114  0.47598724  0.51539863
   0.41831608  0.43807807  0.47810060
   0.44818306  0.37077006  0.45331062
   0.32003457  0.49751063  0.53767647
   0.39097972  0.53816203  0.50632326
   0.49543003  0.56961548  0.47780857
   0.47029488  0.63315772  0.51581937
   0.53931009  0.52527272  0.42129425
   0.53149041  0.47185439  0.58328716
   0.64368754  0.50446015  0.51036346
   0.46047023  0.41406797  0.47018307
   0.36003912  0.50111039  0.49790245
   0.46703954  0.58519646  0.51557460
Direct configuration=     4
   0.51691942  0.48225669  0.42450631
   0.58257552  0.51748879  0.44271280
   0.50956060  0.51455461  0.57598637
   0.50878826  0.44248746  0.55189523
   0.61060707  0.48865074  0.54302248
   0.68208105  0.47595544  0.51539693
   0.41825390  0.43811931  0.47812070
   0.44817661  0.37071680  0.45329053
   0.32041807  0.49757797  0.53734238
   0.39099561  0.53823386  0.50638843
   0.49547259  0.56958241  0.47775070
   0.47029203  0.63321446  0.51582627
   0.53928517  0.52533331  0.42125944
   0.53154665  0.47183807  0.58333509
   0.64369204  0.50450833  0.51031597
   0.46053502  0.41408419  0.47018895
   0.35964404  0.50097592  0.49816828
   0.46699688  0.58516548  0.51562299
Direct configuration=     5
   0.51685853  0.48216612  0.42450999
   0.58268155  0.51748260  0.44276404
   0.50951928  0.51465450  0.57597886
   0.50874472  0.44241250  0.55182858
   0.61051211  0.48862184  0.54309972
   0.68216181  0.47590398  0.51539417
   0.41815329  0.43818603  0.47815323
   0.44816618  0.37063062  0.45325801
   0.32103857  0.49768694  0.53680182
   0.39102131  0.53835008  0.50649389
   0.49554145  0.56952891  0.47765706
   0.47028742  0.63330627  0.51583744
   0.53924485  0.52543134  0.42120312
   0.53163766  0.47181166  0.58341264
   0.64369930  0.50458629  0.51023912
   0.46063984  0.41411044  0.47019847
   0.35900479  0.50075836  0.49859839
   0.46692784  0.58511535  0.51570130
Direct configuration=     6
   0.51660448  0.48178824  0.42452531
   0.58312394  0.51745678  0.44297781
   0.50934689  0.51507131  0.57594752
   0.50856307  0.44209975  0.55155049
   0.61011593  0.48850127  0.54342201
   0.68249878  0.47568927  0.51538266
   0.41773350  0.43846441  0.47828897
   0.44812264  0.37027107  0.45312234
   0.32362762  0.49814160  0.53454634
   0.39112857  0.53883501  0.50693388
   0.49582879  0.56930568  0.47726637
   0.47026817  0.63368933  0.51588406
   0.53907662  0.52584038  0.42096812
   0.53201738  0.47170148  0.58373623
   0.64372963  0.50491156  0.50991851
   0.46107723  0.41421995  0.47023819
   0.35633750  0.49985057  0.50039303
   0.46663979  0.58490617  0.51602801
Direct configuration=     7
   0.51619341  0.48117681  0.42455012
   0.58383974  0.51741500  0.44332369
   0.50906794  0.51574572  0.57589680
   0.50826916  0.44159371  0.55110052
   0.60947488  0.48830618  0.54394349
   0.68304400  0.47534186  0.51536403
   0.41705425  0.43891485  0.47850859
   0.44805221  0.36968929  0.45290283
   0.32781679  0.49887725  0.53089690
   0.39130212  0.53961964  0.50764581
   0.49629370  0.56894449  0.47663422
   0.47023702  0.63430913  0.51595949
   0.53880442  0.52650223  0.42058789
   0.53263178  0.47152320  0.58425982
   0.64377869  0.50543786  0.50939974
   0.46178494  0.41439715  0.47030246
   0.35202175  0.49838174  0.50329683
   0.46617371  0.58456772  0.51655665
Direct configuration=     8
   0.51673150  0.48197718  0.42451765
   0.58290274  0.51746969  0.44287092
   0.50943309  0.51486291  0.57596319
   0.50865390  0.44225613  0.55168953
   0.61031402  0.48856155  0.54326087
   0.68233029  0.47579663  0.51538841
   0.41794339  0.43832522  0.47822110
   0.44814441  0.37045085  0.45319018
   0.32233309  0.49791427  0.53567408
   0.39107494  0.53859255  0.50671388
   0.49568512  0.56941730  0.47746172
   0.47027779  0.63349780  0.51586075
   0.53916074  0.52563586  0.42108562
   0.53182752  0.47175657  0.58357444
   0.64371447  0.50474892  0.51007882
   0.46085854  0.41416520  0.47021833
   0.35767114  0.50030446  0.49949571
   0.46678381  0.58501076  0.51586465
Direct configuration=     9
   0.51666799  0.48188271  0.42452148
   0.58301334  0.51746324  0.44292437
   0.50938999  0.51496711  0.57595535
   0.50860849  0.44217794  0.55162001
   0.61021497  0.48853141  0.54334144
   0.68241454  0.47574295  0.51538554
   0.41783845  0.43839482  0.47825504
   0.44813353  0.37036096  0.45315626
   0.32298036  0.49802793  0.53511021
   0.39110176  0.53871378  0.50682388
   0.49575695  0.56936149  0.47736404
   0.47027298  0.63359356  0.51587241
   0.53911868  0.52573812  0.42102687
   0.53192245  0.47172902  0.58365534
   0.64372205  0.50483024  0.50999866
   0.46096788  0.41419257  0.47022826
   0.35700432  0.50007752  0.49994437
   0.46671180  0.58495847  0.51594633
Direct configuration=    10
   0.51669975  0.48192995  0.42451957
   0.58295804  0.51746646  0.44289764
   0.50941154  0.51491501  0.57595927
   0.50863119  0.44221703  0.55165477
   0.61026450  0.48854648  0.54330115
   0.68237241  0.47576979  0.51538697
   0.41789092  0.43836002  0.47823807
   0.44813897  0.37040590  0.45317322
   0.32265672  0.49797110  0.53539215
   0.39108835  0.53865316  0.50676888
   0.49572103  0.56938939  0.47741288
   0.47027539  0.63354568  0.51586658
   0.53913971  0.52568699  0.42105625
   0.53187498  0.47174280  0.58361489
   0.64371826  0.50478958  0.51003874
   0.46091321  0.41417888  0.47022329
   0.35733773  0.50019099  0.49972004
   0.46674781  0.58498462  0.51590549
Direct configuration=    11
   0.51668387  0.48190633  0.42452052
   0.58298569  0.51746485  0.44291100
   0.50940076  0.51494106  0.57595731
   0.50861984  0.44219749  0.55163739
   0.61023974  0.48853895  0.54332130
   0.68239348  0.47575637  0.51538625
   0.41786468  0.43837742  0.47824655
   0.44813625  0.37038343  0.45316474
   0.32281854  0.49799952  0.53525118
   0.39109506  0.53868347  0.50679638
   0.49573899  0.56937544  0.47738846
   0.47027418  0.63356962  0.51586949
   0.53912920  0.52571256  0.42104156
   0.53189872  0.47173591  0.58363511
   0.64372015  0.50480991  0.51001870
   0.46094055  0.41418573  0.47022578
   0.35717103  0.50013425  0.49983221
   0.46672980  0.58497154  0.51592591
Direct configuration=    12
   0.51667593  0.48189452  0.42452100
   0.58299952  0.51746404  0.44291768
   0.50939537  0.51495408  0.57595633
   0.50861416  0.44218771  0.55162870
   0.61022735  0.48853518  0.54333137
   0.68240401  0.47574966  0.51538589
   0.41785156  0.43838612  0.47825079
   0.44813489  0.37037219  0.45316050
   0.32289945  0.49801372  0.53518070
   0.39109841  0.53869862  0.50681013
   0.49574797  0.56936847  0.47737625
   0.47027358  0.63358159  0.51587095
   0.53912394  0.52572534  0.42103422
   0.53191058  0.47173247  0.58364522
   0.64372110  0.50482007  0.51000868
   0.46095422  0.41418915  0.47022702
   0.35708768  0.50010589  0.49988829
   0.46672080  0.58496501  0.51593612
