============================================================
/var/spool/torque/aux//4589
Job name: VASP_JOB
Job ID: 4589
Job submitted to queue: batch
Number of nodes: 3
Number of processors: 48
VASP is running on the following nodes:

    node23:16
    node22:16
    node21:16

============================================================

 running on   48 total cores
 distrk:  each k-point on   48 cores,    1 groups
 distr:  one band on   12 cores,    4 groups
 using from now: INCAR     
 vasp.5.4.4.18Apr17-6-g9f103f2a35 (build Sep 04 2019 18:34:39) complex          
  
 POSCAR found type information on POSCAR  H  O 
 POSCAR found :  2 types and      18 ions
 scaLAPACK will be used

 ----------------------------------------------------------------------------- 
|                                                                             |
|  ADVICE TO THIS USER RUNNING 'VASP/VAMP'   (HEAR YOUR MASTER'S VOICE ...):  |
|                                                                             |
|      You have a (more or less) 'large supercell' and for larger cells       |
|      it might be more efficient to use real space projection opertators     |
|      So try LREAL= Auto  in the INCAR   file.                               |
|      Mind:          For very  accurate calculation you might also keep the  |
|      reciprocal projection scheme          (i.e. LREAL=.FALSE.)             |
|                                                                             |
 ----------------------------------------------------------------------------- 

 LDA part: xc-table for Pade appr. of Perdew
 POSCAR, INCAR and KPOINTS ok, starting setup
 FFT: planning ...
 WAVECAR not read
 WARNING: random wavefunctions but no delay for mixing, default for NELMDL
 entering main loop
  @ DRIVER MODE: Connecting to server: 19.19.19.100 : 31415
  @ DRIVER MODE: Message from server: STATUS
  @ DRIVER MODE: Message from server: STATUS
  @ DRIVER MODE: Message from server: INIT
  @ DRIVER MODE: Receiving replica           0          -1
  @ DRIVER MODE: Message from server: STATUS
  @ DRIVER MODE: Message from server: POSDATA
  @ DRIVER MODE: Reading POSDATA from server...
  @ DRIVER MODE: Reading POSDATA from server completed!
       N       E                     dE             d eps       ncg     rms          rms(c)
DAV:   1     0.517402100101E+03    0.51740E+03   -0.85836E+03    88   0.539E+02
DAV:   2     0.227923425525E+03   -0.28948E+03   -0.27522E+03   128   0.111E+02
DAV:   3    -0.398696976386E+02   -0.26779E+03   -0.26359E+03   120   0.105E+02
DAV:   4    -0.955770779572E+02   -0.55707E+02   -0.55592E+02    84   0.664E+01
DAV:   5    -0.967027465315E+02   -0.11257E+01   -0.11252E+01    88   0.125E+01    0.182E+01
RMM:   6    -0.875521905784E+02    0.91506E+01   -0.35733E+01    96   0.248E+01    0.713E+00
RMM:   7    -0.871759639635E+02    0.37623E+00   -0.19057E+00    96   0.465E+00    0.460E+00
RMM:   8    -0.869260970021E+02    0.24987E+00   -0.50819E-01    96   0.386E+00    0.730E-01
RMM:   9    -0.868930010252E+02    0.33096E-01   -0.17351E-01    96   0.141E+00    0.365E-01
RMM:  10    -0.868893623988E+02    0.36386E-02   -0.17509E-02    92   0.470E-01    0.184E-01
RMM:  11    -0.868904622519E+02   -0.10999E-02   -0.77561E-03    92   0.345E-01    0.958E-02
RMM:  12    -0.869045145084E+02   -0.14052E-01   -0.10256E-02    90   0.278E-01    0.826E-02
RMM:  13    -0.869116190651E+02   -0.71046E-02   -0.26490E-03    90   0.193E-01    0.349E-02
RMM:  14    -0.869167567619E+02   -0.51377E-02   -0.76052E-04    89   0.870E-02    0.442E-02
RMM:  15    -0.869196393481E+02   -0.28826E-02   -0.91607E-04    89   0.100E-01    0.192E-02
RMM:  16    -0.869213288793E+02   -0.16895E-02   -0.29911E-04    87   0.561E-02    0.848E-03
RMM:  17    -0.869217773782E+02   -0.44850E-03   -0.82986E-05    94   0.287E-02    0.103E-02
RMM:  18    -0.869220606274E+02   -0.28325E-03   -0.19764E-05    92   0.148E-02    0.328E-03
RMM:  19    -0.869222215699E+02   -0.16094E-03   -0.10469E-05    89   0.119E-02    0.394E-03
RMM:  20    -0.869222782248E+02   -0.56655E-04   -0.12211E-06    71   0.407E-03    0.245E-03
RMM:  21    -0.869223224426E+02   -0.44218E-04   -0.24981E-06    68   0.611E-03    0.102E-03
RMM:  22    -0.869223310340E+02   -0.85914E-05   -0.41729E-07    70   0.275E-03    0.386E-04
RMM:  23    -0.869223367147E+02   -0.56806E-05   -0.12820E-07    58   0.143E-03    0.482E-04
RMM:  24    -0.869223396183E+02   -0.29036E-05   -0.55669E-08    48   0.116E-03    0.204E-04
RMM:  25    -0.869223407446E+02   -0.11263E-05   -0.25742E-08    53   0.104E-03    0.125E-04
RMM:  26    -0.869223422897E+02   -0.15451E-05   -0.25472E-08    47   0.990E-04    0.182E-04
RMM:  27    -0.869223431090E+02   -0.81931E-06   -0.59302E-09    46   0.832E-04
   1 F= -.86922343E+02 E0= -.86922343E+02  d E =-.745867E-11
  @ DRIVER MODE: Message from server: STATUS
  @ DRIVER MODE: Message from server: GETFORCE
  @ DRIVER MODE: Returning v,forces,stress 
  @ DRIVER MODE: Message from server: STATUS
  @ DRIVER MODE: Message from server: STATUS
  @ DRIVER MODE: Message from server: INIT
  @ DRIVER MODE: Receiving replica           1           0
  @ DRIVER MODE: Resetting scf history 
  @ DRIVER MODE: Message from server: STATUS
  @ DRIVER MODE: Message from server: POSDATA
  @ DRIVER MODE: Reading POSDATA from server...
  @ DRIVER MODE: Reading POSDATA from server completed!
       N       E                     dE             d eps       ncg     rms          rms(c)
DAV:   1    -0.122830769848E+03   -0.35908E+02   -0.17595E+03    88   0.203E+02    0.454E+01
RMM:   2    -0.844387461175E+02    0.38392E+02   -0.34629E+02   106   0.699E+01    0.274E+01
RMM:   3    -0.575571337013E+02    0.26882E+02   -0.79397E+01    95   0.294E+01    0.781E+00
RMM:   4    -0.559810476998E+02    0.15761E+01   -0.99281E+00    98   0.897E+00    0.450E+00
RMM:   5    -0.557232478078E+02    0.25780E+00   -0.48332E+00    95   0.729E+00    0.263E+00
RMM:   6    -0.555525887203E+02    0.17066E+00   -0.52245E-01    95   0.263E+00    0.813E-01
RMM:   7    -0.555640249446E+02   -0.11436E-01   -0.25296E-01    96   0.159E+00    0.686E-01
RMM:   8    -0.555517050178E+02    0.12320E-01   -0.45797E-02    95   0.785E-01    0.160E-01
RMM:   9    -0.555550922882E+02   -0.33873E-02   -0.26149E-02    94   0.539E-01    0.275E-01
RMM:  10    -0.555552067070E+02   -0.11442E-03   -0.97295E-03    90   0.349E-01    0.554E-02
RMM:  11    -0.555574261355E+02   -0.22194E-02   -0.18846E-03    92   0.122E-01    0.372E-02
RMM:  12    -0.555589192337E+02   -0.14931E-02   -0.49446E-04    99   0.630E-02    0.172E-02
RMM:  13    -0.555598071324E+02   -0.88790E-03   -0.21010E-04    96   0.478E-02    0.297E-02
RMM:  14    -0.555610687860E+02   -0.12617E-02   -0.11537E-04    91   0.333E-02    0.148E-02
RMM:  15    -0.555614787012E+02   -0.40992E-03   -0.22425E-04    94   0.485E-02    0.227E-02
RMM:  16    -0.555617585425E+02   -0.27984E-03   -0.71117E-05    92   0.287E-02    0.267E-03
RMM:  17    -0.555618546947E+02   -0.96152E-04   -0.10433E-05    92   0.106E-02    0.470E-03
RMM:  18    -0.555619490913E+02   -0.94397E-04   -0.28267E-06    75   0.548E-03    0.328E-03
RMM:  19    -0.555619909250E+02   -0.41834E-04   -0.25827E-06    77   0.538E-03    0.795E-04
RMM:  20    -0.555620134086E+02   -0.22484E-04   -0.58385E-07    67   0.268E-03    0.656E-04
RMM:  21    -0.555620227297E+02   -0.93211E-05   -0.24177E-07    64   0.158E-03    0.382E-04
RMM:  22    -0.555620277279E+02   -0.49982E-05   -0.16263E-07    60   0.145E-03    0.157E-04
RMM:  23    -0.555620299929E+02   -0.22650E-05   -0.40585E-08    53   0.102E-03    0.975E-05
RMM:  24    -0.555620311781E+02   -0.11852E-05   -0.33210E-08    53   0.101E-03    0.469E-05
RMM:  25    -0.555620318367E+02   -0.65866E-06   -0.89318E-09    50   0.866E-04
   2 F= -.55562032E+02 E0= -.55562032E+02  d E =-.236269E-10
  @ DRIVER MODE: Message from server: STATUS
  @ DRIVER MODE: Message from server: GETFORCE
  @ DRIVER MODE: Returning v,forces,stress 
  @ DRIVER MODE: Message from server: STATUS
  @ DRIVER MODE: Message from server: STATUS
  @ DRIVER MODE: Message from server: INIT
  @ DRIVER MODE: Receiving replica           1           1
  @ DRIVER MODE: Message from server: STATUS
  @ DRIVER MODE: Message from server: POSDATA
  @ DRIVER MODE: Reading POSDATA from server...
  @ DRIVER MODE: Reading POSDATA from server completed!
       N       E                     dE             d eps       ncg     rms          rms(c)
DAV:   1    -0.159299595988E+03   -0.10374E+03   -0.15696E+03    88   0.189E+02    0.444E+01
RMM:   2    -0.107265236291E+03    0.52034E+02   -0.13531E+02    96   0.433E+01    0.234E+01
RMM:   3    -0.889915560485E+02    0.18274E+02   -0.35374E+01    96   0.188E+01    0.724E+00
RMM:   4    -0.875245191649E+02    0.14670E+01   -0.12579E+01    96   0.101E+01    0.378E+00
RMM:   5    -0.872391081517E+02    0.28541E+00   -0.25115E+00    96   0.523E+00    0.147E+00
RMM:   6    -0.872046408825E+02    0.34467E-01   -0.10143E-01    96   0.112E+00    0.709E-01
RMM:   7    -0.872013733078E+02    0.32676E-02   -0.12771E-01    96   0.107E+00    0.383E-01
RMM:   8    -0.872075414881E+02   -0.61682E-02   -0.56411E-02    96   0.781E-01    0.323E-01
RMM:   9    -0.872195558723E+02   -0.12014E-01   -0.10387E-02    94   0.304E-01    0.317E-01
RMM:  10    -0.872231852049E+02   -0.36293E-02   -0.28861E-02    96   0.508E-01    0.135E-01
RMM:  11    -0.872298433800E+02   -0.66582E-02   -0.17642E-03    91   0.133E-01    0.969E-02
RMM:  12    -0.872320947016E+02   -0.22513E-02   -0.20426E-03    99   0.141E-01    0.238E-02
RMM:  13    -0.872345984622E+02   -0.25038E-02   -0.22384E-04    90   0.503E-02    0.109E-02
RMM:  14    -0.872361947130E+02   -0.15963E-02   -0.18185E-04    81   0.358E-02    0.595E-03
RMM:  15    -0.872368038568E+02   -0.60914E-03   -0.83618E-05    87   0.261E-02    0.154E-02
RMM:  16    -0.872370713346E+02   -0.26748E-03   -0.53876E-05    89   0.228E-02    0.387E-03
RMM:  17    -0.872371827428E+02   -0.11141E-03   -0.52251E-06    83   0.662E-03    0.396E-03
RMM:  18    -0.872372486603E+02   -0.65918E-04   -0.21623E-06    69   0.465E-03    0.180E-03
RMM:  19    -0.872372642908E+02   -0.15630E-04   -0.91710E-07    67   0.329E-03    0.410E-04
RMM:  20    -0.872372771946E+02   -0.12904E-04   -0.39593E-07    58   0.228E-03    0.400E-04
RMM:  21    -0.872372793914E+02   -0.21968E-05   -0.11317E-07    59   0.128E-03    0.514E-04
RMM:  22    -0.872372825443E+02   -0.31529E-05   -0.70554E-08    48   0.122E-03    0.143E-04
RMM:  23    -0.872372832869E+02   -0.74258E-06   -0.14002E-08    51   0.935E-04
   3 F= -.87237283E+02 E0= -.87237283E+02  d E =-.202210E-11
  @ DRIVER MODE: Message from server: STATUS
  @ DRIVER MODE: Message from server: GETFORCE
  @ DRIVER MODE: Returning v,forces,stress 
  @ DRIVER MODE: Message from server: STATUS
  @ DRIVER MODE: Message from server: STATUS
  @ DRIVER MODE: Message from server: INIT
  @ DRIVER MODE: Receiving replica           1           1
  @ DRIVER MODE: Message from server: STATUS
  @ DRIVER MODE: Message from server: POSDATA
  @ DRIVER MODE: Reading POSDATA from server...
  @ DRIVER MODE: Reading POSDATA from server completed!
       N       E                     dE             d eps       ncg     rms          rms(c)
DAV:   1    -0.902886220593E+02   -0.30513E+01   -0.67385E+01    76   0.400E+01    0.830E+00
RMM:   2    -0.882002644986E+02    0.20884E+01   -0.53799E+00    93   0.896E+00    0.495E+00
RMM:   3    -0.873136868852E+02    0.88658E+00   -0.45315E+00    96   0.658E+00    0.120E+00
RMM:   4    -0.872834974939E+02    0.30189E-01   -0.10572E-01    96   0.121E+00    0.490E-01
RMM:   5    -0.872881680747E+02   -0.46706E-02   -0.44841E-02    92   0.728E-01    0.309E-01
RMM:   6    -0.872869539022E+02    0.12142E-02   -0.18950E-02    93   0.458E-01    0.151E-01
RMM:   7    -0.872888730681E+02   -0.19192E-02   -0.26343E-03    86   0.188E-01    0.502E-02
RMM:   8    -0.872905464472E+02   -0.16734E-02   -0.27342E-03    86   0.182E-01    0.103E-01
RMM:   9    -0.872918885814E+02   -0.13421E-02   -0.27128E-03    83   0.164E-01    0.243E-02
RMM:  10    -0.872924740872E+02   -0.58551E-03   -0.45082E-04    99   0.581E-02    0.475E-02
RMM:  11    -0.872929182186E+02   -0.44413E-03   -0.54984E-04    87   0.755E-02    0.134E-02
RMM:  12    -0.872931211197E+02   -0.20290E-03   -0.32374E-05    88   0.204E-02    0.380E-03
RMM:  13    -0.872933660344E+02   -0.24491E-03   -0.20852E-05    81   0.131E-02    0.404E-03
RMM:  14    -0.872934145358E+02   -0.48501E-04   -0.98575E-06    86   0.106E-02    0.470E-03
RMM:  15    -0.872934860029E+02   -0.71467E-04   -0.44357E-06    76   0.686E-03    0.125E-03
RMM:  16    -0.872935086062E+02   -0.22603E-04   -0.10548E-06    71   0.385E-03    0.798E-04
RMM:  17    -0.872935255367E+02   -0.16930E-04   -0.57266E-07    66   0.259E-03    0.109E-03
RMM:  18    -0.872935339811E+02   -0.84444E-05   -0.25072E-07    62   0.175E-03    0.491E-04
RMM:  19    -0.872935385635E+02   -0.45824E-05   -0.23536E-07    66   0.185E-03    0.286E-04
RMM:  20    -0.872935400918E+02   -0.15282E-05   -0.34456E-08    50   0.860E-04    0.142E-04
RMM:  21    -0.872935416592E+02   -0.15674E-05   -0.24793E-08    43   0.975E-04    0.660E-05
RMM:  22    -0.872935421032E+02   -0.44403E-06    0.00000E+00    47   0.770E-04
   4 F= -.87293542E+02 E0= -.87293542E+02  d E =-.129799E-10
  @ DRIVER MODE: Message from server: STATUS
  @ DRIVER MODE: Message from server: GETFORCE
  @ DRIVER MODE: Returning v,forces,stress 
  @ DRIVER MODE: Message from server: STATUS
  @ DRIVER MODE: Message from server: STATUS
  @ DRIVER MODE: Message from server: INIT
  @ DRIVER MODE: Receiving replica           1           1
  @ DRIVER MODE: Message from server: STATUS
  @ DRIVER MODE: Message from server: POSDATA
  @ DRIVER MODE: Reading POSDATA from server...
  @ DRIVER MODE: Reading POSDATA from server completed!
       N       E                     dE             d eps       ncg     rms          rms(c)
DAV:   1    -0.885467987105E+02   -0.12533E+01   -0.25343E+01    88   0.240E+01    0.490E+00
RMM:   2    -0.877807264816E+02    0.76607E+00   -0.19318E+00    88   0.540E+00    0.308E+00
RMM:   3    -0.874235359817E+02    0.35719E+00   -0.17347E+00    94   0.412E+00    0.591E-01
RMM:   4    -0.874173866224E+02    0.61494E-02   -0.25218E-02    95   0.606E-01    0.289E-01
RMM:   5    -0.874195013810E+02   -0.21148E-02   -0.11057E-02    93   0.366E-01    0.186E-01
RMM:   6    -0.874186777733E+02    0.82361E-03   -0.66706E-03    96   0.270E-01    0.782E-02
RMM:   7    -0.874197370055E+02   -0.10592E-02   -0.98285E-04    94   0.116E-01    0.418E-02
RMM:   8    -0.874207556694E+02   -0.10187E-02   -0.57413E-04    89   0.788E-02    0.524E-02
RMM:   9    -0.874217378100E+02   -0.98214E-03   -0.94549E-04    85   0.952E-02    0.199E-02
RMM:  10    -0.874222923084E+02   -0.55450E-03   -0.12749E-04    95   0.313E-02    0.263E-02
RMM:  11    -0.874225627081E+02   -0.27040E-03   -0.14847E-04    91   0.400E-02    0.691E-03
RMM:  12    -0.874227537701E+02   -0.19106E-03   -0.15041E-05    85   0.119E-02    0.547E-03
RMM:  13    -0.874229089681E+02   -0.15520E-03   -0.10181E-05    80   0.868E-03    0.334E-03
RMM:  14    -0.874229532609E+02   -0.44293E-04   -0.20398E-06    74   0.451E-03    0.151E-03
RMM:  15    -0.874229993734E+02   -0.46113E-04   -0.31504E-06    73   0.570E-03    0.162E-03
RMM:  16    -0.874230154705E+02   -0.16097E-04   -0.57328E-07    66   0.259E-03    0.102E-03
RMM:  17    -0.874230214557E+02   -0.59853E-05   -0.28992E-07    65   0.181E-03    0.595E-04
RMM:  18    -0.874230263864E+02   -0.49307E-05   -0.25682E-07    59   0.180E-03    0.185E-04
RMM:  19    -0.874230273076E+02   -0.92118E-06   -0.72556E-08    58   0.104E-03
   5 F= -.87423027E+02 E0= -.87423027E+02  d E =-.408202E-11
  @ DRIVER MODE: Message from server: STATUS
  @ DRIVER MODE: Message from server: GETFORCE
  @ DRIVER MODE: Returning v,forces,stress 
  @ DRIVER MODE: Message from server: STATUS
  @ DRIVER MODE: Message from server: STATUS
  @ DRIVER MODE: Message from server: INIT
  @ DRIVER MODE: Receiving replica           1           1
  @ DRIVER MODE: Message from server: STATUS
  @ DRIVER MODE: Message from server: POSDATA
  @ DRIVER MODE: Reading POSDATA from server...
  @ DRIVER MODE: Reading POSDATA from server completed!
       N       E                     dE             d eps       ncg     rms          rms(c)
DAV:   1    -0.874526013633E+02   -0.29575E-01   -0.34608E-01    88   0.300E+00    0.580E-01
RMM:   2    -0.874430251059E+02    0.95763E-02   -0.28926E-02    86   0.740E-01    0.350E-01
RMM:   3    -0.874393716410E+02    0.36535E-02   -0.24935E-02    92   0.497E-01    0.127E-01
RMM:   4    -0.874390231458E+02    0.34850E-03   -0.73728E-04    96   0.104E-01    0.580E-02
RMM:   5    -0.874390874663E+02   -0.64320E-04   -0.99224E-04    92   0.108E-01    0.414E-02
RMM:   6    -0.874390588887E+02    0.28578E-04   -0.41483E-04    96   0.698E-02    0.203E-02
RMM:   7    -0.874390863853E+02   -0.27497E-04   -0.31243E-05    78   0.215E-02    0.563E-03
RMM:   8    -0.874391072588E+02   -0.20874E-04   -0.27678E-05    81   0.181E-02    0.840E-03
RMM:   9    -0.874391515444E+02   -0.44286E-04   -0.13704E-05    72   0.111E-02    0.149E-03
RMM:  10    -0.874391638877E+02   -0.12343E-04   -0.34893E-06    78   0.553E-03    0.215E-03
RMM:  11    -0.874391835889E+02   -0.19701E-04   -0.24816E-06    65   0.464E-03    0.781E-04
RMM:  12    -0.874391886093E+02   -0.50204E-05   -0.45562E-07    63   0.212E-03    0.500E-04
RMM:  13    -0.874391948544E+02   -0.62451E-05   -0.48286E-07    65   0.208E-03    0.402E-04
RMM:  14    -0.874391972205E+02   -0.23661E-05   -0.23288E-07    63   0.155E-03    0.238E-04
RMM:  15    -0.874391998183E+02   -0.25978E-05   -0.16095E-07    54   0.127E-03    0.193E-04
RMM:  16    -0.874392009793E+02   -0.11610E-05   -0.58419E-08    55   0.108E-03    0.745E-05
RMM:  17    -0.874392019919E+02   -0.10126E-05   -0.13665E-08    43   0.929E-04    0.329E-05
RMM:  18    -0.874392024501E+02   -0.45823E-06   -0.99764E-09    50   0.928E-04
   6 F= -.87439202E+02 E0= -.87439202E+02  d E =-.833878E-11
  @ DRIVER MODE: Message from server: STATUS
  @ DRIVER MODE: Message from server: GETFORCE
  @ DRIVER MODE: Returning v,forces,stress 
  @ DRIVER MODE: Message from server: STATUS
  @ DRIVER MODE: Message from server: STATUS
  @ DRIVER MODE: Message from server: INIT
  @ DRIVER MODE: Receiving replica           1           1
  @ DRIVER MODE: Message from server: STATUS
  @ DRIVER MODE: Message from server: POSDATA
  @ DRIVER MODE: Reading POSDATA from server...
  @ DRIVER MODE: Reading POSDATA from server completed!
       N       E                     dE             d eps       ncg     rms          rms(c)
DAV:   1    -0.874724164268E+02   -0.33214E-01   -0.51717E-01    80   0.403E+00    0.677E-01
RMM:   2    -0.874577073089E+02    0.14709E-01   -0.33283E-02    86   0.885E-01    0.412E-01
RMM:   3    -0.874524212853E+02    0.52860E-02   -0.39603E-02    93   0.662E-01    0.183E-01
RMM:   4    -0.874517967872E+02    0.62450E-03   -0.12124E-03    96   0.141E-01    0.911E-02
RMM:   5    -0.874519619697E+02   -0.16518E-03   -0.29359E-03    91   0.188E-01    0.656E-02
RMM:   6    -0.874518575394E+02    0.10443E-03   -0.11189E-03    96   0.115E-01    0.308E-02
RMM:   7    -0.874519789762E+02   -0.12144E-03   -0.75511E-05    83   0.350E-02    0.998E-03
RMM:   8    -0.874520725618E+02   -0.93586E-04   -0.12102E-04    87   0.369E-02    0.190E-02
RMM:   9    -0.874521894927E+02   -0.11693E-03   -0.39820E-05    77   0.201E-02    0.585E-03
RMM:  10    -0.874522487526E+02   -0.59260E-04   -0.21542E-05    87   0.139E-02    0.277E-03
RMM:  11    -0.874522929046E+02   -0.44152E-04   -0.37753E-06    73   0.552E-03    0.197E-03
RMM:  12    -0.874523263784E+02   -0.33474E-04   -0.32744E-06    71   0.491E-03    0.554E-04
RMM:  13    -0.874523407565E+02   -0.14378E-04   -0.85797E-07    67   0.274E-03    0.686E-04
RMM:  14    -0.874523478103E+02   -0.70539E-05   -0.52645E-07    63   0.221E-03    0.312E-04
RMM:  15    -0.874523512467E+02   -0.34363E-05   -0.25427E-07    68   0.175E-03    0.473E-04
RMM:  16    -0.874523531794E+02   -0.19327E-05   -0.74360E-08    56   0.103E-03    0.426E-04
RMM:  17    -0.874523552589E+02   -0.20795E-05   -0.91182E-08    53   0.127E-03    0.133E-04
RMM:  18    -0.874523559424E+02   -0.68356E-06   -0.83258E-09    48   0.815E-04
   7 F= -.87452356E+02 E0= -.87452356E+02  d E =-.833031E-11
  @ DRIVER MODE: Message from server: STATUS
  @ DRIVER MODE: Message from server: GETFORCE
  @ DRIVER MODE: Returning v,forces,stress 
  @ DRIVER MODE: Message from server: STATUS
  @ DRIVER MODE: Message from server: STATUS
  @ DRIVER MODE: Message from server: INIT
  @ DRIVER MODE: Receiving replica           1           1
  @ DRIVER MODE: Message from server: STATUS
  @ DRIVER MODE: Message from server: POSDATA
  @ DRIVER MODE: Reading POSDATA from server...
  @ DRIVER MODE: Reading POSDATA from server completed!
       N       E                     dE             d eps       ncg     rms          rms(c)
DAV:   1    -0.875383961460E+02   -0.86041E-01   -0.16578E+00    80   0.675E+00    0.124E+00
RMM:   2    -0.874839539008E+02    0.54442E-01   -0.10579E-01    85   0.151E+00    0.760E-01
RMM:   3    -0.874605645890E+02    0.23389E-01   -0.11782E-01    94   0.113E+00    0.199E-01
RMM:   4    -0.874600532718E+02    0.51132E-03   -0.24596E-03    96   0.201E-01    0.825E-02
RMM:   5    -0.874604353930E+02   -0.38212E-03   -0.17792E-03    92   0.148E-01    0.584E-02
RMM:   6    -0.874604733716E+02   -0.37979E-04   -0.13297E-03    93   0.121E-01    0.452E-02
RMM:   7    -0.874607391785E+02   -0.26581E-03   -0.24805E-04    84   0.600E-02    0.100E-02
RMM:   8    -0.874610973013E+02   -0.35812E-03   -0.22693E-04    81   0.505E-02    0.326E-02
RMM:   9    -0.874612942934E+02   -0.19699E-03   -0.15834E-04    85   0.415E-02    0.475E-03
RMM:  10    -0.874613952297E+02   -0.10094E-03   -0.33841E-05    92   0.176E-02    0.601E-03
RMM:  11    -0.874614814359E+02   -0.86206E-04   -0.71711E-06    81   0.828E-03    0.163E-03
RMM:  12    -0.874615412288E+02   -0.59793E-04   -0.33044E-06    71   0.485E-03    0.125E-03
RMM:  13    -0.874615877896E+02   -0.46561E-04   -0.31100E-06    71   0.468E-03    0.703E-04
RMM:  14    -0.874615973316E+02   -0.95420E-05   -0.48763E-07    68   0.223E-03    0.427E-04
RMM:  15    -0.874616073667E+02   -0.10035E-04   -0.32456E-07    65   0.196E-03    0.558E-04
RMM:  16    -0.874616119999E+02   -0.46331E-05   -0.13351E-07    58   0.131E-03    0.217E-04
RMM:  17    -0.874616155129E+02   -0.35130E-05   -0.13865E-07    57   0.145E-03    0.263E-04
RMM:  18    -0.874616162366E+02   -0.72372E-06   -0.14554E-08    51   0.776E-04
   8 F= -.87461616E+02 E0= -.87461616E+02  d E =-.115926E-10
  @ DRIVER MODE: Message from server: STATUS
  @ DRIVER MODE: Message from server: GETFORCE
  @ DRIVER MODE: Returning v,forces,stress 
  @ DRIVER MODE: Message from server: STATUS
  @ DRIVER MODE: Message from server: STATUS
  @ DRIVER MODE: Message from server: INIT
  @ DRIVER MODE: Receiving replica           1           1
  @ DRIVER MODE: Message from server: STATUS
  @ DRIVER MODE: Message from server: POSDATA
  @ DRIVER MODE: Reading POSDATA from server...
  @ DRIVER MODE: Reading POSDATA from server completed!
       N       E                     dE             d eps       ncg     rms          rms(c)
DAV:   1    -0.876182953305E+02   -0.15668E+00   -0.30498E+00    80   0.935E+00    0.167E+00
RMM:   2    -0.875106379542E+02    0.10766E+00   -0.22057E-01    85   0.225E+00    0.103E+00
RMM:   3    -0.874642743953E+02    0.46364E-01   -0.23517E-01    95   0.162E+00    0.214E-01
RMM:   4    -0.874641950015E+02    0.79394E-04   -0.35228E-03    96   0.244E-01    0.105E-01
RMM:   5    -0.874649955583E+02   -0.80056E-03   -0.14470E-03    90   0.139E-01    0.689E-02
RMM:   6    -0.874650274365E+02   -0.31878E-04   -0.13846E-03    93   0.124E-01    0.359E-02
RMM:   7    -0.874655220546E+02   -0.49462E-03   -0.17559E-04    87   0.527E-02    0.144E-02
RMM:   8    -0.874660978227E+02   -0.57577E-03   -0.17126E-04    84   0.436E-02    0.258E-02
RMM:   9    -0.874663594512E+02   -0.26163E-03   -0.18049E-04    90   0.429E-02    0.529E-03
RMM:  10    -0.874665421081E+02   -0.18266E-03   -0.36274E-05    90   0.172E-02    0.110E-02
RMM:  11    -0.874666499371E+02   -0.10783E-03   -0.25393E-05    88   0.168E-02    0.206E-03
RMM:  12    -0.874667136829E+02   -0.63746E-04   -0.24862E-06    73   0.486E-03    0.152E-03
RMM:  13    -0.874667747165E+02   -0.61034E-04   -0.37774E-06    71   0.508E-03    0.818E-04
RMM:  14    -0.874667943644E+02   -0.19648E-04   -0.60334E-07    66   0.238E-03    0.575E-04
RMM:  15    -0.874668089573E+02   -0.14593E-04   -0.57541E-07    60   0.237E-03    0.256E-04
RMM:  16    -0.874668149609E+02   -0.60036E-05   -0.26749E-07    57   0.160E-03    0.347E-04
RMM:  17    -0.874668171229E+02   -0.21620E-05   -0.10095E-07    56   0.116E-03    0.220E-04
RMM:  18    -0.874668195113E+02   -0.23885E-05   -0.78754E-08    52   0.126E-03    0.121E-04
RMM:  19    -0.874668200460E+02   -0.53462E-06   -0.70846E-09    49   0.888E-04
   9 F= -.87466820E+02 E0= -.87466820E+02  d E =-.164673E-10
  @ DRIVER MODE: Message from server: STATUS
  @ DRIVER MODE: Message from server: GETFORCE
  @ DRIVER MODE: Returning v,forces,stress 
  @ DRIVER MODE: Message from server: STATUS
  @ DRIVER MODE: Message from server: STATUS
  @ DRIVER MODE: Message from server: INIT
  @ DRIVER MODE: Receiving replica           1           1
  @ DRIVER MODE: Message from server: STATUS
  @ DRIVER MODE: Message from server: POSDATA
  @ DRIVER MODE: Reading POSDATA from server...
  @ DRIVER MODE: Reading POSDATA from server completed!
       N       E                     dE             d eps       ncg     rms          rms(c)
DAV:   1    -0.875160522226E+02   -0.49233E-01   -0.97094E-01    80   0.528E+00    0.935E-01
RMM:   2    -0.874823599448E+02    0.33692E-01   -0.67277E-02    85   0.125E+00    0.575E-01
RMM:   3    -0.874673405714E+02    0.15019E-01   -0.72090E-02    95   0.910E-01    0.115E-01
RMM:   4    -0.874674009305E+02   -0.60359E-04   -0.99490E-04    95   0.131E-01    0.567E-02
RMM:   5    -0.874677015013E+02   -0.30057E-03   -0.39773E-04    89   0.759E-02    0.362E-02
RMM:   6    -0.874677355578E+02   -0.34057E-04   -0.36969E-04    93   0.652E-02    0.179E-02
RMM:   7    -0.874679627132E+02   -0.22716E-03   -0.45855E-05    85   0.267E-02    0.809E-03
RMM:   8    -0.874682367136E+02   -0.27400E-03   -0.54155E-05    81   0.238E-02    0.124E-02
RMM:   9    -0.874683565657E+02   -0.11985E-03   -0.52735E-05    89   0.232E-02    0.340E-03
RMM:  10    -0.874684507379E+02   -0.94172E-04   -0.12006E-05    82   0.931E-03    0.554E-03
RMM:  11    -0.874684959344E+02   -0.45197E-04   -0.78004E-06    86   0.934E-03    0.112E-03
RMM:  12    -0.874685275101E+02   -0.31576E-04   -0.12725E-06    71   0.336E-03    0.101E-03
RMM:  13    -0.874685476704E+02   -0.20160E-04   -0.90092E-07    63   0.274E-03    0.521E-04
RMM:  14    -0.874685575149E+02   -0.98444E-05   -0.43000E-07    62   0.192E-03    0.210E-04
RMM:  15    -0.874685634280E+02   -0.59131E-05   -0.27908E-07    57   0.170E-03    0.266E-04
RMM:  16    -0.874685659673E+02   -0.25393E-05   -0.90400E-08    53   0.104E-03    0.152E-04
RMM:  17    -0.874685675462E+02   -0.15789E-05   -0.33057E-08    50   0.971E-04    0.524E-05
RMM:  18    -0.874685682546E+02   -0.70841E-06   -0.64212E-09    47   0.906E-04
  10 F= -.87468568E+02 E0= -.87468568E+02  d E =-.114882E-10
  @ DRIVER MODE: Message from server: STATUS
  @ DRIVER MODE: Message from server: GETFORCE
  @ DRIVER MODE: Returning v,forces,stress 
  @ DRIVER MODE: Message from server: STATUS
  @ DRIVER MODE: Message from server: STATUS
  @ DRIVER MODE: Message from server: INIT
  @ DRIVER MODE: Receiving replica           1           1
  @ DRIVER MODE: Message from server: STATUS
  @ DRIVER MODE: Message from server: POSDATA
  @ DRIVER MODE: Reading POSDATA from server...
  @ DRIVER MODE: Reading POSDATA from server completed!
       N       E                     dE             d eps       ncg     rms          rms(c)
DAV:   1    -0.875789196334E+02   -0.11035E+00   -0.21472E+00    80   0.795E+00    0.140E+00
RMM:   2    -0.875014415316E+02    0.77478E-01   -0.15528E-01    85   0.194E+00    0.846E-01
RMM:   3    -0.874686308543E+02    0.32811E-01   -0.16499E-01    95   0.139E+00    0.167E-01
RMM:   4    -0.874687616528E+02   -0.13080E-03   -0.22768E-03    95   0.195E-01    0.901E-02
RMM:   5    -0.874694083878E+02   -0.64673E-03   -0.99260E-04    90   0.123E-01    0.586E-02
RMM:   6    -0.874693892266E+02    0.19161E-04   -0.93626E-04    94   0.105E-01    0.242E-02
RMM:   7    -0.874697708004E+02   -0.38157E-03   -0.82088E-05    86   0.373E-02    0.118E-02
RMM:   8    -0.874702366364E+02   -0.46584E-03   -0.95573E-05    81   0.320E-02    0.160E-02
RMM:   9    -0.874704372504E+02   -0.20061E-03   -0.94243E-05    89   0.305E-02    0.471E-03
RMM:  10    -0.874706016540E+02   -0.16440E-03   -0.23493E-05    87   0.131E-02    0.821E-03
RMM:  11    -0.874706729570E+02   -0.71303E-04   -0.15418E-05    90   0.134E-02    0.179E-03
RMM:  12    -0.874707348402E+02   -0.61883E-04   -0.31292E-06    73   0.532E-03    0.203E-03
RMM:  13    -0.874707711541E+02   -0.36314E-04   -0.17517E-06    69   0.396E-03    0.713E-04
RMM:  14    -0.874707849015E+02   -0.13747E-04   -0.53698E-07    66   0.225E-03    0.370E-04
RMM:  15    -0.874707992513E+02   -0.14350E-04   -0.56690E-07    58   0.232E-03    0.314E-04
RMM:  16    -0.874708027868E+02   -0.35355E-05   -0.19051E-07    61   0.135E-03    0.283E-04
RMM:  17    -0.874708054742E+02   -0.26875E-05   -0.95423E-08    52   0.112E-03    0.111E-04
RMM:  18    -0.874708073506E+02   -0.18763E-05   -0.50770E-08    49   0.106E-03    0.551E-05
RMM:  19    -0.874708079818E+02   -0.63123E-06   -0.17922E-09    47   0.875E-04
  11 F= -.87470808E+02 E0= -.87470808E+02  d E =-.750178E-11
  @ DRIVER MODE: Message from server: STATUS
  @ DRIVER MODE: Message from server: GETFORCE
  @ DRIVER MODE: Returning v,forces,stress 
  @ DRIVER MODE: Message from server: STATUS
  @ DRIVER MODE: Message from server: STATUS
  @ DRIVER MODE: Message from server: INIT
  @ DRIVER MODE: Receiving replica           1           1
  @ DRIVER MODE: Message from server: STATUS
  @ DRIVER MODE: Message from server: POSDATA
  @ DRIVER MODE: Reading POSDATA from server...
  @ DRIVER MODE: Reading POSDATA from server completed!
       N       E                     dE             d eps       ncg     rms          rms(c)
DAV:   1    -0.880870771478E+02   -0.61627E+00   -0.12257E+01    80   0.190E+01    0.332E+00
RMM:   2    -0.876515889689E+02    0.43549E+00   -0.87688E-01    87   0.464E+00    0.201E+00
RMM:   3    -0.874689111936E+02    0.18268E+00   -0.93087E-01    95   0.330E+00    0.410E-01
RMM:   4    -0.874685810795E+02    0.33011E-03   -0.13874E-02    96   0.474E-01    0.222E-01
RMM:   5    -0.874711758634E+02   -0.25948E-02   -0.67954E-03    91   0.323E-01    0.145E-01
RMM:   6    -0.874706713853E+02    0.50448E-03   -0.59565E-03    96   0.266E-01    0.639E-02
RMM:   7    -0.874719305442E+02   -0.12592E-02   -0.54721E-04    86   0.985E-02    0.282E-02
RMM:   8    -0.874734381365E+02   -0.15076E-02   -0.54309E-04    82   0.809E-02    0.429E-02
RMM:   9    -0.874740482462E+02   -0.61011E-03   -0.52672E-04    85   0.741E-02    0.968E-03
RMM:  10    -0.874746021740E+02   -0.55393E-03   -0.15081E-04    94   0.352E-02    0.226E-02
RMM:  11    -0.874748320371E+02   -0.22986E-03   -0.91836E-05    91   0.336E-02    0.397E-03
RMM:  12    -0.874750461048E+02   -0.21407E-03   -0.18144E-05    83   0.128E-02    0.505E-03
RMM:  13    -0.874752000112E+02   -0.15391E-03   -0.10693E-05    79   0.941E-03    0.174E-03
RMM:  14    -0.874752489198E+02   -0.48909E-04   -0.24597E-06    73   0.446E-03    0.854E-04
RMM:  15    -0.874752954425E+02   -0.46523E-04   -0.19579E-06    67   0.388E-03    0.518E-04
RMM:  16    -0.874753128934E+02   -0.17451E-04   -0.67875E-07    60   0.248E-03    0.550E-04
RMM:  17    -0.874753191432E+02   -0.62497E-05   -0.28673E-07    63   0.173E-03    0.280E-04
RMM:  18    -0.874753233639E+02   -0.42207E-05   -0.19408E-07    62   0.155E-03    0.198E-04
RMM:  19    -0.874753247713E+02   -0.14075E-05   -0.47792E-08    52   0.946E-04    0.157E-04
RMM:  20    -0.874753256980E+02   -0.92667E-06   -0.19501E-08    50   0.888E-04
  12 F= -.87475326E+02 E0= -.87475326E+02  d E =-.249183E-11
  @ DRIVER MODE: Message from server: STATUS
  @ DRIVER MODE: Message from server: GETFORCE
  @ DRIVER MODE: Returning v,forces,stress 
  @ DRIVER MODE: Message from server: STATUS
  @ DRIVER MODE: Message from server: STATUS
  @ DRIVER MODE: Message from server: INIT
  @ DRIVER MODE: Receiving replica           1           1
  @ DRIVER MODE: Message from server: STATUS
  @ DRIVER MODE: Message from server: POSDATA
  @ DRIVER MODE: Reading POSDATA from server...
  @ DRIVER MODE: Reading POSDATA from server completed!
       N       E                     dE             d eps       ncg     rms          rms(c)
DAV:   1    -0.882760613560E+02   -0.80074E+00   -0.16302E+01    80   0.224E+01    0.382E+00
RMM:   2    -0.877049426660E+02    0.57112E+00   -0.11836E+00    89   0.549E+00    0.231E+00
RMM:   3    -0.874630549697E+02    0.24189E+00   -0.12240E+00    95   0.387E+00    0.464E-01
RMM:   4    -0.874623095450E+02    0.74542E-03   -0.17922E-02    96   0.549E-01    0.256E-01
RMM:   5    -0.874650314409E+02   -0.27219E-02   -0.84892E-03    94   0.374E-01    0.163E-01
RMM:   6    -0.874642220128E+02    0.80943E-03   -0.73039E-03    95   0.299E-01    0.691E-02
RMM:   7    -0.874655986017E+02   -0.13766E-02   -0.62623E-04    86   0.108E-01    0.322E-02
RMM:   8    -0.874673774139E+02   -0.17788E-02   -0.63630E-04    84   0.896E-02    0.481E-02
RMM:   9    -0.874680745160E+02   -0.69710E-03   -0.69389E-04    83   0.847E-02    0.112E-02
RMM:  10    -0.874687867830E+02   -0.71227E-03   -0.18832E-04    93   0.398E-02    0.245E-02
RMM:  11    -0.874690889149E+02   -0.30213E-03   -0.12091E-04    92   0.387E-02    0.492E-03
RMM:  12    -0.874693593328E+02   -0.27042E-03   -0.19575E-05    81   0.132E-02    0.531E-03
RMM:  13    -0.874695542145E+02   -0.19488E-03   -0.14282E-05    78   0.107E-02    0.173E-03
RMM:  14    -0.874696142942E+02   -0.60080E-04   -0.33885E-06    75   0.495E-03    0.846E-04
RMM:  15    -0.874696687548E+02   -0.54461E-04   -0.21475E-06    65   0.409E-03    0.599E-04
RMM:  16    -0.874696851037E+02   -0.16349E-04   -0.64191E-07    58   0.238E-03    0.527E-04
RMM:  17    -0.874696954169E+02   -0.10313E-04   -0.38617E-07    64   0.198E-03    0.245E-04
RMM:  18    -0.874696989986E+02   -0.35817E-05   -0.16641E-07    61   0.137E-03    0.116E-04
RMM:  19    -0.874697011549E+02   -0.21564E-05   -0.70303E-08    53   0.110E-03    0.123E-04
RMM:  20    -0.874697019170E+02   -0.76208E-06   -0.14121E-08    48   0.870E-04
  13 F= -.87469702E+02 E0= -.87469702E+02  d E =-.382445E-12
  @ DRIVER MODE: Message from server: STATUS
  @ DRIVER MODE: Message from server: GETFORCE
  @ DRIVER MODE: Returning v,forces,stress 
  @ DRIVER MODE: Message from server: STATUS
  @ DRIVER MODE: Message from server: STATUS
  @ DRIVER MODE: Message from server: INIT
  @ DRIVER MODE: Receiving replica           1           1
  @ DRIVER MODE: Message from server: STATUS
  @ DRIVER MODE: Message from server: POSDATA
  @ DRIVER MODE: Reading POSDATA from server...
  @ DRIVER MODE: Reading POSDATA from server completed!
       N       E                     dE             d eps       ncg     rms          rms(c)
DAV:   1    -0.878804617391E+02   -0.41076E+00   -0.81239E+00    80   0.158E+01    0.271E+00
RMM:   2    -0.875908162240E+02    0.28965E+00   -0.58586E-01    84   0.384E+00    0.163E+00
RMM:   3    -0.874707255055E+02    0.12009E+00   -0.60395E-01    95   0.272E+00    0.316E-01
RMM:   4    -0.874720122519E+02   -0.12867E-02   -0.82413E-03    96   0.376E-01    0.175E-01
RMM:   5    -0.874746063750E+02   -0.25941E-02   -0.39123E-03    87   0.255E-01    0.111E-01
RMM:   6    -0.874742665571E+02    0.33982E-03   -0.33136E-03    95   0.203E-01    0.454E-02
RMM:   7    -0.874750895573E+02   -0.82300E-03   -0.33328E-04    86   0.758E-02    0.216E-02
RMM:   8    -0.874757553312E+02   -0.66577E-03   -0.30872E-04    82   0.616E-02    0.302E-02
RMM:   9    -0.874760235906E+02   -0.26826E-03   -0.36050E-04    83   0.604E-02    0.944E-03
RMM:  10    -0.874762069890E+02   -0.18340E-03   -0.61775E-05    92   0.235E-02    0.146E-02
RMM:  11    -0.874762699620E+02   -0.62973E-04   -0.37725E-05    95   0.220E-02    0.278E-03
RMM:  12    -0.874763548491E+02   -0.84887E-04   -0.89052E-06    82   0.923E-03    0.418E-03
RMM:  13    -0.874764024560E+02   -0.47607E-04   -0.25282E-06    71   0.526E-03    0.184E-03
RMM:  14    -0.874764333865E+02   -0.30930E-04   -0.19368E-06    68   0.451E-03    0.899E-04
RMM:  15    -0.874764576868E+02   -0.24300E-04   -0.91475E-07    64   0.306E-03    0.594E-04
RMM:  16    -0.874764662136E+02   -0.85268E-05   -0.35821E-07    59   0.183E-03    0.450E-04
RMM:  17    -0.874764721895E+02   -0.59758E-05   -0.24064E-07    66   0.171E-03    0.322E-04
RMM:  18    -0.874764741285E+02   -0.19390E-05   -0.66432E-08    57   0.109E-03    0.847E-05
RMM:  19    -0.874764758608E+02   -0.17323E-05   -0.43824E-08    56   0.112E-03    0.168E-04
RMM:  20    -0.874764764014E+02   -0.54059E-06    0.00000E+00    46   0.762E-04
  14 F= -.87476476E+02 E0= -.87476476E+02  d E =-.173658E-11
  @ DRIVER MODE: Message from server: STATUS
  @ DRIVER MODE: Message from server: GETFORCE
  @ DRIVER MODE: Returning v,forces,stress 
  @ DRIVER MODE: Message from server: STATUS
  @ DRIVER MODE: Message from server: STATUS
  @ DRIVER MODE: Message from server: INIT
  @ DRIVER MODE: Receiving replica           1           1
  @ DRIVER MODE: Message from server: STATUS
  @ DRIVER MODE: Message from server: POSDATA
  @ DRIVER MODE: Reading POSDATA from server...
  @ DRIVER MODE: Reading POSDATA from server completed!
       N       E                     dE             d eps       ncg     rms          rms(c)
DAV:   1    -0.875430179325E+02   -0.66542E-01   -0.13289E+00    80   0.636E+00    0.109E+00
RMM:   2    -0.874974509768E+02    0.45567E-01   -0.93335E-02    86   0.153E+00    0.664E-01
RMM:   3    -0.874772280988E+02    0.20223E-01   -0.93617E-02    95   0.106E+00    0.126E-01
RMM:   4    -0.874772538648E+02   -0.25766E-04   -0.14932E-03    95   0.149E-01    0.713E-02
RMM:   5    -0.874775556928E+02   -0.30183E-03   -0.71053E-04    91   0.105E-01    0.441E-02
RMM:   6    -0.874775697818E+02   -0.14089E-04   -0.56842E-04    93   0.824E-02    0.213E-02
RMM:   7    -0.874777818035E+02   -0.21202E-03   -0.59890E-05    88   0.319E-02    0.897E-03
RMM:   8    -0.874780804291E+02   -0.29863E-03   -0.62385E-05    83   0.264E-02    0.142E-02
RMM:   9    -0.874782081550E+02   -0.12773E-03   -0.62585E-05    89   0.251E-02    0.358E-03
RMM:  10    -0.874783281856E+02   -0.12003E-03   -0.16296E-05    84   0.112E-02    0.715E-03
RMM:  11    -0.874783790965E+02   -0.50911E-04   -0.91632E-06    85   0.103E-02    0.124E-03
RMM:  12    -0.874784304160E+02   -0.51319E-04   -0.27721E-06    68   0.529E-03    0.159E-03
RMM:  13    -0.874784614053E+02   -0.30989E-04   -0.12671E-06    67   0.333E-03    0.873E-04
RMM:  14    -0.874784747464E+02   -0.13341E-04   -0.68126E-07    65   0.241E-03    0.377E-04
RMM:  15    -0.874784866060E+02   -0.11860E-04   -0.48719E-07    60   0.213E-03    0.182E-04
RMM:  16    -0.874784902269E+02   -0.36209E-05   -0.20295E-07    62   0.140E-03    0.255E-04
RMM:  17    -0.874784930235E+02   -0.27966E-05   -0.80893E-08    53   0.108E-03    0.119E-04
RMM:  18    -0.874784943417E+02   -0.13182E-05   -0.41861E-08    55   0.102E-03    0.365E-05
RMM:  19    -0.874784949178E+02   -0.57616E-06   -0.37216E-09    48   0.849E-04
  15 F= -.87478495E+02 E0= -.87478495E+02  d E =-.137949E-11
  @ DRIVER MODE: Message from server: STATUS
  @ DRIVER MODE: Message from server: GETFORCE
  @ DRIVER MODE: Returning v,forces,stress 
  @ DRIVER MODE: Message from server: STATUS
  @ DRIVER MODE: Message from server: STATUS
  @ DRIVER MODE: Message from server: INIT
  @ DRIVER MODE: Receiving replica           1           1
  @ DRIVER MODE: Message from server: STATUS
  @ DRIVER MODE: Message from server: POSDATA
  @ DRIVER MODE: Reading POSDATA from server...
  @ DRIVER MODE: Reading POSDATA from server completed!
       N       E                     dE             d eps       ncg     rms          rms(c)
DAV:   1    -0.874972605989E+02   -0.18766E-01   -0.38910E-01    88   0.350E+00    0.586E-01
RMM:   2    -0.874850528227E+02    0.12208E-01   -0.25835E-02    83   0.813E-01    0.365E-01
RMM:   3    -0.874790341466E+02    0.60187E-02   -0.23838E-02    93   0.560E-01    0.594E-02
RMM:   4    -0.874790290146E+02    0.51320E-05   -0.39214E-04    95   0.752E-02    0.341E-02
RMM:   5    -0.874790654819E+02   -0.36467E-04   -0.14557E-04    90   0.500E-02    0.195E-02
RMM:   6    -0.874790844878E+02   -0.19006E-04   -0.12373E-04    92   0.384E-02    0.113E-02
RMM:   7    -0.874791535014E+02   -0.69014E-04   -0.19319E-05    89   0.182E-02    0.533E-03
RMM:   8    -0.874792920958E+02   -0.13859E-03   -0.19684E-05    82   0.143E-02    0.694E-03
RMM:   9    -0.874793538783E+02   -0.61782E-04   -0.20282E-05    86   0.144E-02    0.280E-03
RMM:  10    -0.874794119943E+02   -0.58116E-04   -0.36309E-06    71   0.533E-03    0.259E-03
RMM:  11    -0.874794406462E+02   -0.28652E-04   -0.32799E-06    76   0.592E-03    0.107E-03
RMM:  12    -0.874794626037E+02   -0.21957E-04   -0.90770E-07    61   0.291E-03    0.773E-04
RMM:  13    -0.874794740343E+02   -0.11431E-04   -0.62173E-07    63   0.235E-03    0.313E-04
RMM:  14    -0.874794817314E+02   -0.76970E-05   -0.41598E-07    63   0.187E-03    0.187E-04
RMM:  15    -0.874794847461E+02   -0.30148E-05   -0.14167E-07    58   0.117E-03    0.762E-05
RMM:  16    -0.874794877650E+02   -0.30189E-05   -0.91162E-08    49   0.118E-03    0.977E-05
RMM:  17    -0.874794885482E+02   -0.78317E-06   -0.23702E-08    51   0.954E-04
  16 F= -.87479489E+02 E0= -.87479489E+02  d E =-.123121E-11
  @ DRIVER MODE: Message from server: STATUS
  @ DRIVER MODE: Message from server: GETFORCE
  @ DRIVER MODE: Returning v,forces,stress 
  @ DRIVER MODE: Message from server: STATUS
  @ DRIVER MODE: Message from server: STATUS
  @ DRIVER MODE: Message from server: INIT
  @ DRIVER MODE: Receiving replica           1           1
  @ DRIVER MODE: Message from server: STATUS
  @ DRIVER MODE: Message from server: POSDATA
  @ DRIVER MODE: Reading POSDATA from server...
  @ DRIVER MODE: Reading POSDATA from server completed!
       N       E                     dE             d eps       ncg     rms          rms(c)
DAV:   1    -0.875007984294E+02   -0.21311E-01   -0.44341E-01    88   0.367E+00    0.624E-01
RMM:   2    -0.874863974089E+02    0.14401E-01   -0.29884E-02    82   0.867E-01    0.386E-01
RMM:   3    -0.874796285606E+02    0.67688E-02   -0.28927E-02    94   0.603E-01    0.661E-02
RMM:   4    -0.874796471124E+02   -0.18552E-04   -0.42580E-04    95   0.807E-02    0.371E-02
RMM:   5    -0.874797239357E+02   -0.76823E-04   -0.16018E-04    89   0.519E-02    0.214E-02
RMM:   6    -0.874797406867E+02   -0.16751E-04   -0.14313E-04    92   0.412E-02    0.115E-02
RMM:   7    -0.874798241849E+02   -0.83498E-04   -0.19232E-05    90   0.183E-02    0.558E-03
RMM:   8    -0.874799536243E+02   -0.12944E-03   -0.15917E-05    85   0.127E-02    0.622E-03
RMM:   9    -0.874800194694E+02   -0.65845E-04   -0.18235E-05    86   0.132E-02    0.232E-03
RMM:  10    -0.874800776626E+02   -0.58193E-04   -0.36841E-06    73   0.536E-03    0.248E-03
RMM:  11    -0.874801054243E+02   -0.27762E-04   -0.27533E-06    75   0.546E-03    0.822E-04
RMM:  12    -0.874801253028E+02   -0.19878E-04   -0.75214E-07    60   0.275E-03    0.695E-04
RMM:  13    -0.874801371907E+02   -0.11888E-04   -0.58554E-07    59   0.224E-03    0.290E-04
RMM:  14    -0.874801447095E+02   -0.75188E-05   -0.37025E-07    62   0.175E-03    0.166E-04
RMM:  15    -0.874801471789E+02   -0.24694E-05   -0.11935E-07    58   0.109E-03    0.864E-05
RMM:  16    -0.874801506264E+02   -0.34475E-05   -0.95918E-08    47   0.117E-03    0.835E-05
RMM:  17    -0.874801512631E+02   -0.63671E-06   -0.10601E-08    50   0.880E-04
  17 F= -.87480151E+02 E0= -.87480151E+02  d E =-.116856E-11
  @ DRIVER MODE: Message from server: STATUS
  @ DRIVER MODE: Message from server: GETFORCE
  @ DRIVER MODE: Returning v,forces,stress 
  @ DRIVER MODE: Message from server: STATUS
  @ DRIVER MODE: Message from server: STATUS
  @ DRIVER MODE: Message from server: INIT
  @ DRIVER MODE: Receiving replica           1           1
  @ DRIVER MODE: Message from server: STATUS
  @ DRIVER MODE: Message from server: POSDATA
  @ DRIVER MODE: Reading POSDATA from server...
  @ DRIVER MODE: Reading POSDATA from server completed!
       N       E                     dE             d eps       ncg     rms          rms(c)
DAV:   1    -0.876502942591E+02   -0.17014E+00   -0.36790E+00    80   0.105E+01    0.179E+00
RMM:   2    -0.875335357717E+02    0.11676E+00   -0.24135E-01    84   0.250E+00    0.111E+00
RMM:   3    -0.874794008057E+02    0.54135E-01   -0.23665E-01    94   0.174E+00    0.198E-01
RMM:   4    -0.874793037652E+02    0.97040E-04   -0.35534E-03    96   0.236E-01    0.107E-01
RMM:   5    -0.874796982172E+02   -0.39445E-03   -0.13766E-03    90   0.152E-01    0.608E-02
RMM:   6    -0.874797319249E+02   -0.33708E-04   -0.12406E-03    95   0.122E-01    0.371E-02
RMM:   7    -0.874801512403E+02   -0.41932E-03   -0.18391E-04    86   0.582E-02    0.165E-02
RMM:   8    -0.874808154677E+02   -0.66423E-03   -0.14706E-04    83   0.405E-02    0.207E-02
RMM:   9    -0.874811139586E+02   -0.29849E-03   -0.16981E-04    90   0.423E-02    0.767E-03
RMM:  10    -0.874813749064E+02   -0.26095E-03   -0.28890E-05    86   0.143E-02    0.814E-03
RMM:  11    -0.874814903668E+02   -0.11546E-03   -0.23012E-05    88   0.165E-02    0.340E-03
RMM:  12    -0.874815821787E+02   -0.91812E-04   -0.42334E-06    74   0.600E-03    0.177E-03
RMM:  13    -0.874816476083E+02   -0.65430E-04   -0.42186E-06    73   0.607E-03    0.140E-03
RMM:  14    -0.874816673918E+02   -0.19784E-04   -0.83254E-07    69   0.300E-03    0.444E-04
RMM:  15    -0.874816905238E+02   -0.23132E-04   -0.82770E-07    59   0.279E-03    0.371E-04
RMM:  16    -0.874816981581E+02   -0.76343E-05   -0.35631E-07    58   0.178E-03    0.142E-04
RMM:  17    -0.874817019617E+02   -0.38036E-05   -0.17035E-07    59   0.138E-03    0.918E-05
RMM:  18    -0.874817043750E+02   -0.24133E-05   -0.75375E-08    54   0.115E-03    0.588E-05
RMM:  19    -0.874817054973E+02   -0.11223E-05   -0.29059E-08    52   0.996E-04    0.294E-05
RMM:  20    -0.874817060749E+02   -0.57763E-06   -0.12945E-08    49   0.883E-04
  18 F= -.87481706E+02 E0= -.87481706E+02  d E =-.105971E-11
  @ DRIVER MODE: Message from server: STATUS
  @ DRIVER MODE: Message from server: GETFORCE
  @ DRIVER MODE: Returning v,forces,stress 
  @ DRIVER MODE: Message from server: STATUS
  @ DRIVER MODE: Message from server: STATUS
  @ DRIVER MODE: Message from server: INIT
  @ DRIVER MODE: Receiving replica           1           1
  @ DRIVER MODE: Message from server: STATUS
  @ DRIVER MODE: Message from server: POSDATA
  @ DRIVER MODE: Reading POSDATA from server...
  @ DRIVER MODE: Reading POSDATA from server completed!
       N       E                     dE             d eps       ncg     rms          rms(c)
DAV:   1    -0.878229594676E+02   -0.34125E+00   -0.74589E+00    80   0.151E+01    0.256E+00
RMM:   2    -0.875874084952E+02    0.23555E+00   -0.50150E-01    86   0.357E+00    0.159E+00
RMM:   3    -0.874784318967E+02    0.10898E+00   -0.48924E-01    95   0.250E+00    0.287E-01
RMM:   4    -0.874780373511E+02    0.39455E-03   -0.72023E-03    95   0.342E-01    0.152E-01
RMM:   5    -0.874788714278E+02   -0.83408E-03   -0.29070E-03    94   0.216E-01    0.879E-02
RMM:   6    -0.874788892602E+02   -0.17832E-04   -0.24298E-03    95   0.171E-01    0.522E-02
RMM:   7    -0.874795871042E+02   -0.69784E-03   -0.35925E-04    86   0.808E-02    0.219E-02
RMM:   8    -0.874805929681E+02   -0.10059E-02   -0.26636E-04    82   0.560E-02    0.301E-02
RMM:   9    -0.874810811226E+02   -0.48815E-03   -0.32165E-04    89   0.586E-02    0.947E-03
RMM:  10    -0.874814984155E+02   -0.41729E-03   -0.58305E-05    88   0.214E-02    0.119E-02
RMM:  11    -0.874816519374E+02   -0.15352E-03   -0.38342E-05    90   0.214E-02    0.345E-03
RMM:  12    -0.874818047182E+02   -0.15278E-03   -0.86775E-06    76   0.798E-03    0.202E-03
RMM:  13    -0.874818742757E+02   -0.69557E-04   -0.41712E-06    77   0.594E-03    0.125E-03
RMM:  14    -0.874819099612E+02   -0.35685E-04   -0.12170E-06    68   0.328E-03    0.617E-04
RMM:  15    -0.874819412570E+02   -0.31296E-04   -0.96461E-07    61   0.286E-03    0.300E-04
RMM:  16    -0.874819520600E+02   -0.10803E-04   -0.52473E-07    58   0.204E-03    0.242E-04
RMM:  17    -0.874819585758E+02   -0.65158E-05   -0.26120E-07    55   0.160E-03    0.104E-04
RMM:  18    -0.874819605887E+02   -0.20129E-05   -0.10096E-07    59   0.118E-03    0.691E-05
RMM:  19    -0.874819622068E+02   -0.16181E-05   -0.34260E-08    51   0.908E-04    0.389E-05
RMM:  20    -0.874819627003E+02   -0.49342E-06   -0.11470E-09    48   0.787E-04
  19 F= -.87481963E+02 E0= -.87481963E+02  d E =-.157733E-11
  @ DRIVER MODE: Message from server: STATUS
  @ DRIVER MODE: Message from server: GETFORCE
  @ DRIVER MODE: Returning v,forces,stress 
  @ DRIVER MODE: Message from server: STATUS
  @ DRIVER MODE: Message from server: STATUS
  @ DRIVER MODE: Message from server: INIT
  @ DRIVER MODE: Receiving replica           1           1
  @ DRIVER MODE: Message from server: STATUS
  @ DRIVER MODE: Message from server: POSDATA
  @ DRIVER MODE: Reading POSDATA from server...
  @ DRIVER MODE: Reading POSDATA from server completed!
       N       E                     dE             d eps       ncg     rms          rms(c)
DAV:   1    -0.875005198911E+02   -0.18558E-01   -0.35072E-01    80   0.323E+00    0.573E-01
RMM:   2    -0.874884262253E+02    0.12094E-01   -0.26849E-02    81   0.784E-01    0.350E-01
RMM:   3    -0.874831573858E+02    0.52688E-02   -0.25190E-02    95   0.542E-01    0.577E-02
RMM:   4    -0.874832401336E+02   -0.82748E-04   -0.30131E-04    94   0.715E-02    0.328E-02
RMM:   5    -0.874834200661E+02   -0.17993E-03   -0.13850E-04    85   0.446E-02    0.221E-02
RMM:   6    -0.874834115786E+02    0.84874E-05   -0.83344E-05    95   0.316E-02    0.450E-03
RMM:   7    -0.874834834123E+02   -0.71834E-04   -0.99202E-06    75   0.104E-02    0.358E-03
RMM:   8    -0.874835282915E+02   -0.44879E-04   -0.56069E-06    76   0.658E-03    0.227E-03
RMM:   9    -0.874835733900E+02   -0.45099E-04   -0.94639E-06    72   0.801E-03    0.109E-03
RMM:  10    -0.874835945783E+02   -0.21188E-04   -0.31798E-06    70   0.478E-03    0.985E-04
RMM:  11    -0.874836020670E+02   -0.74887E-05   -0.10580E-06    68   0.331E-03    0.673E-04
RMM:  12    -0.874836071288E+02   -0.50618E-05   -0.40502E-07    66   0.200E-03    0.351E-04
RMM:  13    -0.874836098749E+02   -0.27461E-05   -0.23617E-07    64   0.167E-03    0.389E-04
RMM:  14    -0.874836119489E+02   -0.20740E-05   -0.10804E-07    57   0.121E-03    0.117E-04
RMM:  15    -0.874836128834E+02   -0.93450E-06   -0.22039E-08    50   0.931E-04
  20 F= -.87483613E+02 E0= -.87483613E+02  d E =-.113572E-11
  @ DRIVER MODE: Message from server: STATUS
  @ DRIVER MODE: Message from server: GETFORCE
  @ DRIVER MODE: Returning v,forces,stress 
  @ DRIVER MODE: Message from server: STATUS
  @ DRIVER MODE: Message from server: STATUS
  @ DRIVER MODE: Message from server: INIT
  @ DRIVER MODE: Receiving replica           1           1
  @ DRIVER MODE: Message from server: STATUS
  @ DRIVER MODE: Message from server: POSDATA
  @ DRIVER MODE: Reading POSDATA from server...
  @ DRIVER MODE: Reading POSDATA from server completed!
       N       E                     dE             d eps       ncg     rms          rms(c)
DAV:   1    -0.874887243773E+02   -0.51124E-02   -0.10133E-01    88   0.178E+00    0.301E-01
RMM:   2    -0.874853964510E+02    0.33279E-02   -0.70593E-03    85   0.415E-01    0.189E-01
RMM:   3    -0.874838261475E+02    0.15703E-02   -0.69084E-03    95   0.293E-01    0.316E-02
RMM:   4    -0.874838395195E+02   -0.13372E-04   -0.92528E-05    95   0.391E-02    0.167E-02
RMM:   5    -0.874838759584E+02   -0.36439E-04   -0.44436E-05    90   0.253E-02    0.106E-02
RMM:   6    -0.874838834839E+02   -0.75255E-05   -0.27262E-05    91   0.185E-02    0.471E-03
RMM:   7    -0.874839059970E+02   -0.22513E-04   -0.32290E-06    69   0.677E-03    0.183E-03
RMM:   8    -0.874839325483E+02   -0.26551E-04   -0.42976E-06    69   0.678E-03    0.323E-03
RMM:   9    -0.874839494525E+02   -0.16904E-04   -0.43776E-06    76   0.649E-03    0.755E-04
RMM:  10    -0.874839574095E+02   -0.79570E-05   -0.91769E-07    65   0.331E-03    0.139E-03
RMM:  11    -0.874839626294E+02   -0.52199E-05   -0.62894E-07    63   0.251E-03    0.416E-04
RMM:  12    -0.874839660414E+02   -0.34120E-05   -0.46331E-07    67   0.231E-03    0.492E-04
RMM:  13    -0.874839679044E+02   -0.18630E-05   -0.16685E-07    58   0.126E-03    0.248E-04
RMM:  14    -0.874839694949E+02   -0.15905E-05   -0.11145E-07    59   0.126E-03    0.155E-04
RMM:  15    -0.874839701692E+02   -0.67434E-06   -0.21389E-08    51   0.818E-04
  21 F= -.87483970E+02 E0= -.87483970E+02  d E =-.124816E-11
  @ DRIVER MODE: Message from server: STATUS
  @ DRIVER MODE: Message from server: GETFORCE
  @ DRIVER MODE: Returning v,forces,stress 
  @ DRIVER MODE: Message from server: STATUS
  @ DRIVER MODE: Message from server: STATUS
  @ DRIVER MODE: Message from server: INIT
  @ DRIVER MODE: Receiving replica           1           1
  @ DRIVER MODE: Message from server: STATUS
  @ DRIVER MODE: Message from server: POSDATA
  @ DRIVER MODE: Reading POSDATA from server...
  @ DRIVER MODE: Reading POSDATA from server completed!
       N       E                     dE             d eps       ncg     rms          rms(c)
DAV:   1    -0.874877982919E+02   -0.38288E-02   -0.82944E-02    96   0.164E+00    0.269E-01
RMM:   2    -0.874853163517E+02    0.24819E-02   -0.53555E-03    84   0.369E-01    0.170E-01
RMM:   3    -0.874841064670E+02    0.12099E-02   -0.50305E-03    92   0.260E-01    0.302E-02
RMM:   4    -0.874841011772E+02    0.52898E-05   -0.76501E-05    95   0.357E-02    0.152E-02
RMM:   5    -0.874841147928E+02   -0.13616E-04   -0.42259E-05    92   0.255E-02    0.911E-03
RMM:   6    -0.874841233601E+02   -0.85674E-05   -0.27762E-05    91   0.192E-02    0.661E-03
RMM:   7    -0.874841374841E+02   -0.14124E-04   -0.44155E-06    71   0.862E-03    0.170E-03
RMM:   8    -0.874841613907E+02   -0.23907E-04   -0.66322E-06    73   0.928E-03    0.479E-03
RMM:   9    -0.874841753169E+02   -0.13926E-04   -0.43862E-06    72   0.747E-03    0.530E-04
RMM:  10    -0.874841837673E+02   -0.84504E-05   -0.88160E-07    67   0.352E-03    0.956E-04
RMM:  11    -0.874841897312E+02   -0.59639E-05   -0.47272E-07    60   0.203E-03    0.888E-04
RMM:  12    -0.874841953411E+02   -0.56100E-05   -0.51844E-07    65   0.234E-03    0.211E-04
RMM:  13    -0.874841968714E+02   -0.15302E-05   -0.15042E-07    59   0.115E-03    0.951E-05
RMM:  14    -0.874841992503E+02   -0.23790E-05   -0.97964E-08    51   0.112E-03    0.143E-04
RMM:  15    -0.874841999538E+02   -0.70351E-06   -0.37007E-08    53   0.947E-04
  22 F= -.87484200E+02 E0= -.87484200E+02  d E =-.147946E-11
  @ DRIVER MODE: Message from server: STATUS
  @ DRIVER MODE: Message from server: GETFORCE
  @ DRIVER MODE: Returning v,forces,stress 
  @ DRIVER MODE: Message from server: STATUS
  @ DRIVER MODE: Message from server: STATUS
  @ DRIVER MODE: Message from server: INIT
  @ DRIVER MODE: Receiving replica           1           1
  @ DRIVER MODE: Message from server: STATUS
  @ DRIVER MODE: Message from server: POSDATA
  @ DRIVER MODE: Reading POSDATA from server...
  @ DRIVER MODE: Reading POSDATA from server completed!
       N       E                     dE             d eps       ncg     rms          rms(c)
DAV:   1    -0.874916452561E+02   -0.74460E-02   -0.17215E-01    80   0.238E+00    0.382E-01
RMM:   2    -0.874867453251E+02    0.48999E-02   -0.10507E-02    80   0.521E-01    0.242E-01
RMM:   3    -0.874843845035E+02    0.23608E-02   -0.10020E-02    92   0.372E-01    0.440E-02
RMM:   4    -0.874843709238E+02    0.13580E-04   -0.15180E-04    96   0.502E-02    0.219E-02
RMM:   5    -0.874843952306E+02   -0.24307E-04   -0.79844E-05    91   0.349E-02    0.124E-02
RMM:   6    -0.874844113065E+02   -0.16076E-04   -0.56586E-05    92   0.276E-02    0.102E-02
RMM:   7    -0.874844362355E+02   -0.24929E-04   -0.11480E-05    82   0.139E-02    0.244E-03
RMM:   8    -0.874844843332E+02   -0.48098E-04   -0.12715E-05    77   0.125E-02    0.682E-03
RMM:   9    -0.874845064951E+02   -0.22162E-04   -0.90193E-06    79   0.109E-02    0.753E-04
RMM:  10    -0.874845251903E+02   -0.18695E-04   -0.17150E-06    67   0.448E-03    0.151E-03
RMM:  11    -0.874845347880E+02   -0.95977E-05   -0.71695E-07    65   0.256E-03    0.863E-04
RMM:  12    -0.874845424505E+02   -0.76625E-05   -0.66230E-07    63   0.259E-03    0.244E-04
RMM:  13    -0.874845453078E+02   -0.28573E-05   -0.23069E-07    58   0.140E-03    0.126E-04
RMM:  14    -0.874845484688E+02   -0.31611E-05   -0.16514E-07    54   0.129E-03    0.132E-04
RMM:  15    -0.874845493870E+02   -0.91820E-06   -0.59976E-08    53   0.104E-03
  23 F= -.87484549E+02 E0= -.87484549E+02  d E =-.180354E-11
  @ DRIVER MODE: Message from server: STATUS
  @ DRIVER MODE: Message from server: GETFORCE
  @ DRIVER MODE: Returning v,forces,stress 
  @ DRIVER MODE: Message from server: STATUS
  @ DRIVER MODE: Message from server: STATUS
  @ DRIVER MODE: Message from server: INIT
  @ DRIVER MODE: Receiving replica           1           1
  @ DRIVER MODE: Message from server: STATUS
  @ DRIVER MODE: Message from server: POSDATA
  @ DRIVER MODE: Reading POSDATA from server...
  @ DRIVER MODE: Reading POSDATA from server completed!
       N       E                     dE             d eps       ncg     rms          rms(c)
DAV:   1    -0.875711558465E+02   -0.86607E-01   -0.21111E+00    80   0.847E+00    0.135E+00
RMM:   2    -0.875118816626E+02    0.59274E-01   -0.13094E-01    85   0.189E+00    0.844E-01
RMM:   3    -0.874832187303E+02    0.28663E-01   -0.12049E-01    92   0.131E+00    0.144E-01
RMM:   4    -0.874831413340E+02    0.77396E-04   -0.18849E-03    96   0.171E-01    0.799E-02
RMM:   5    -0.874834111466E+02   -0.26981E-03   -0.88327E-04    91   0.124E-01    0.446E-02
RMM:   6    -0.874835075976E+02   -0.96451E-04   -0.58782E-04    94   0.895E-02    0.285E-02
RMM:   7    -0.874837572504E+02   -0.24965E-03   -0.95851E-05    82   0.422E-02    0.969E-03
RMM:   8    -0.874841625419E+02   -0.40529E-03   -0.10732E-04    82   0.362E-02    0.197E-02
RMM:   9    -0.874843354839E+02   -0.17294E-03   -0.10111E-04    89   0.358E-02    0.483E-03
RMM:  10    -0.874844963300E+02   -0.16085E-03   -0.20382E-05    86   0.128E-02    0.722E-03
RMM:  11    -0.874845437929E+02   -0.47463E-04   -0.73374E-06    88   0.963E-03    0.165E-03
RMM:  12    -0.874845930313E+02   -0.49238E-04   -0.25916E-06    73   0.526E-03    0.979E-04
RMM:  13    -0.874846262288E+02   -0.33197E-04   -0.12363E-06    64   0.327E-03    0.669E-04
RMM:  14    -0.874846417460E+02   -0.15517E-04   -0.79218E-07    60   0.251E-03    0.465E-04
RMM:  15    -0.874846512027E+02   -0.94567E-05   -0.37265E-07    58   0.188E-03    0.148E-04
RMM:  16    -0.874846554980E+02   -0.42952E-05   -0.17769E-07    58   0.143E-03    0.160E-04
RMM:  17    -0.874846584269E+02   -0.29289E-05   -0.82174E-08    54   0.116E-03    0.141E-04
RMM:  18    -0.874846590621E+02   -0.63523E-06   -0.11495E-08    49   0.808E-04
  24 F= -.87484659E+02 E0= -.87484659E+02  d E =-.388406E-11
  @ DRIVER MODE: Message from server: STATUS
  @ DRIVER MODE: Message from server: GETFORCE
  @ DRIVER MODE: Returning v,forces,stress 
  @ DRIVER MODE: Message from server: STATUS
  @ DRIVER MODE: Message from server: STATUS
  @ DRIVER MODE: Message from server: INIT
  @ DRIVER MODE: Receiving replica           1           1
  @ DRIVER MODE: Message from server: STATUS
  @ DRIVER MODE: Message from server: POSDATA
  @ DRIVER MODE: Reading POSDATA from server...
  @ DRIVER MODE: Reading POSDATA from server completed!
       N       E                     dE             d eps       ncg     rms          rms(c)
DAV:   1    -0.874930292358E+02   -0.83708E-02   -0.16163E-01    88   0.234E+00    0.390E-01
RMM:   2    -0.874878290862E+02    0.52001E-02   -0.11750E-02    84   0.559E-01    0.243E-01
RMM:   3    -0.874853902493E+02    0.24388E-02   -0.10904E-02    93   0.387E-01    0.384E-02
RMM:   4    -0.874854115663E+02   -0.21317E-04   -0.13652E-04    95   0.492E-02    0.213E-02
RMM:   5    -0.874854750873E+02   -0.63521E-04   -0.58405E-05    88   0.303E-02    0.138E-02
RMM:   6    -0.874854791270E+02   -0.40397E-05   -0.32678E-05    92   0.212E-02    0.331E-03
RMM:   7    -0.874855194903E+02   -0.40363E-04   -0.44765E-06    74   0.715E-03    0.254E-03
RMM:   8    -0.874855520724E+02   -0.32582E-04   -0.39746E-06    74   0.543E-03    0.184E-03
RMM:   9    -0.874855771640E+02   -0.25092E-04   -0.50712E-06    75   0.603E-03    0.110E-03
RMM:  10    -0.874855891931E+02   -0.12029E-04   -0.13187E-06    66   0.309E-03    0.680E-04
RMM:  11    -0.874855960137E+02   -0.68206E-05   -0.88328E-07    69   0.286E-03    0.531E-04
RMM:  12    -0.874855991340E+02   -0.31204E-05   -0.28815E-07    62   0.157E-03    0.259E-04
RMM:  13    -0.874856015481E+02   -0.24141E-05   -0.19504E-07    62   0.148E-03    0.213E-04
RMM:  14    -0.874856029792E+02   -0.14311E-05   -0.71011E-08    54   0.100E-03    0.944E-05
RMM:  15    -0.874856041636E+02   -0.11844E-05   -0.38972E-08    54   0.101E-03    0.118E-04
RMM:  16    -0.874856049538E+02   -0.79016E-06    0.00000E+00    47   0.818E-04
  25 F= -.87485605E+02 E0= -.87485605E+02  d E =-.388820E-11
  @ DRIVER MODE: Message from server: STATUS
  @ DRIVER MODE: Message from server: GETFORCE
  @ DRIVER MODE: Returning v,forces,stress 
  @ DRIVER MODE: Message from server: STATUS
  @ DRIVER MODE: Message from server: STATUS
  @ DRIVER MODE: Message from server: INIT
  @ DRIVER MODE: Receiving replica           1           1
  @ DRIVER MODE: Message from server: STATUS
  @ DRIVER MODE: Message from server: POSDATA
  @ DRIVER MODE: Reading POSDATA from server...
  @ DRIVER MODE: Reading POSDATA from server completed!
       N       E                     dE             d eps       ncg     rms          rms(c)
DAV:   1    -0.874899219606E+02   -0.43178E-02   -0.98032E-02    88   0.170E+00    0.295E-01
RMM:   2    -0.874871792031E+02    0.27428E-02   -0.55114E-03    81   0.352E-01    0.187E-01
RMM:   3    -0.874858104521E+02    0.13688E-02   -0.55065E-03    92   0.267E-01    0.311E-02
RMM:   4    -0.874858026340E+02    0.78182E-05   -0.66693E-05    96   0.331E-02    0.138E-02
RMM:   5    -0.874858132745E+02   -0.10640E-04   -0.26488E-05    91   0.213E-02    0.777E-03
RMM:   6    -0.874858204398E+02   -0.71653E-05   -0.16390E-05    90   0.144E-02    0.450E-03
RMM:   7    -0.874858357940E+02   -0.15354E-04   -0.28336E-06    69   0.676E-03    0.199E-03
RMM:   8    -0.874858659170E+02   -0.30123E-04   -0.41939E-06    71   0.650E-03    0.294E-03
RMM:   9    -0.874858802843E+02   -0.14367E-04   -0.31723E-06    69   0.590E-03    0.796E-04
RMM:  10    -0.874858909408E+02   -0.10656E-04   -0.62213E-07    65   0.258E-03    0.909E-04
RMM:  11    -0.874859002380E+02   -0.92972E-05   -0.64196E-07    59   0.232E-03    0.229E-04
RMM:  12    -0.874859053035E+02   -0.50655E-05   -0.36949E-07    63   0.175E-03    0.224E-04
RMM:  13    -0.874859069029E+02   -0.15994E-05   -0.13786E-07    57   0.107E-03    0.163E-04
RMM:  14    -0.874859095226E+02   -0.26196E-05   -0.92904E-08    53   0.113E-03    0.773E-05
RMM:  15    -0.874859101026E+02   -0.58003E-06   -0.15490E-08    49   0.909E-04
  26 F= -.87485910E+02 E0= -.87485910E+02  d E =-.309676E-11
  @ DRIVER MODE: Message from server: STATUS
  @ DRIVER MODE: Message from server: GETFORCE
  @ DRIVER MODE: Returning v,forces,stress 
  @ DRIVER MODE: Message from server: STATUS
  @ DRIVER MODE: Message from server: STATUS
  @ DRIVER MODE: Message from server: INIT
  @ DRIVER MODE: Receiving replica           1           1
  @ DRIVER MODE: Message from server: STATUS
  @ DRIVER MODE: Message from server: POSDATA
  @ DRIVER MODE: Reading POSDATA from server...
  @ DRIVER MODE: Reading POSDATA from server completed!
       N       E                     dE             d eps       ncg     rms          rms(c)
DAV:   1    -0.874951405093E+02   -0.92310E-02   -0.22919E-01    88   0.271E+00    0.443E-01
RMM:   2    -0.874890046564E+02    0.61359E-02   -0.12945E-02    83   0.576E-01    0.280E-01
RMM:   3    -0.874859181200E+02    0.30865E-02   -0.12191E-02    93   0.415E-01    0.457E-02
RMM:   4    -0.874859028363E+02    0.15284E-04   -0.16664E-04    96   0.510E-02    0.247E-02
RMM:   5    -0.874859257722E+02   -0.22936E-04   -0.79141E-05    91   0.385E-02    0.134E-02
RMM:   6    -0.874859399294E+02   -0.14157E-04   -0.46304E-05    92   0.248E-02    0.711E-03
RMM:   7    -0.874859762246E+02   -0.36295E-04   -0.76549E-06    83   0.114E-02    0.353E-03
RMM:   8    -0.874860532187E+02   -0.76994E-04   -0.10807E-05    74   0.105E-02    0.468E-03
RMM:   9    -0.874860843606E+02   -0.31142E-04   -0.92996E-06    82   0.104E-02    0.208E-03
RMM:  10    -0.874861126160E+02   -0.28255E-04   -0.16803E-06    69   0.392E-03    0.180E-03
RMM:  11    -0.874861272708E+02   -0.14655E-04   -0.13170E-06    69   0.397E-03    0.418E-04
RMM:  12    -0.874861391772E+02   -0.11906E-04   -0.70557E-07    60   0.246E-03    0.456E-04
RMM:  13    -0.874861437318E+02   -0.45546E-05   -0.31754E-07    56   0.165E-03    0.285E-04
RMM:  14    -0.874861477865E+02   -0.40547E-05   -0.24989E-07    64   0.163E-03    0.203E-04
RMM:  15    -0.874861486638E+02   -0.87736E-06   -0.63400E-08    55   0.839E-04
  27 F= -.87486149E+02 E0= -.87486149E+02  d E =-.225651E-11
  @ DRIVER MODE: Message from server: STATUS
  @ DRIVER MODE: Message from server: GETFORCE
  @ DRIVER MODE: Returning v,forces,stress 
  @ DRIVER MODE: Message from server: STATUS
  @ DRIVER MODE: Message from server: STATUS
  @ DRIVER MODE: Message from server: INIT
  @ DRIVER MODE: Receiving replica           1           1
  @ DRIVER MODE: Message from server: STATUS
  @ DRIVER MODE: Message from server: POSDATA
  @ DRIVER MODE: Reading POSDATA from server...
  @ DRIVER MODE: Reading POSDATA from server completed!
       N       E                     dE             d eps       ncg     rms          rms(c)
DAV:   1    -0.874977742177E+02   -0.11626E-01   -0.29870E-01    88   0.316E+00    0.496E-01
RMM:   2    -0.874900761869E+02    0.76980E-02   -0.16493E-02    83   0.668E-01    0.312E-01
RMM:   3    -0.874861609627E+02    0.39152E-02   -0.15043E-02    92   0.474E-01    0.493E-02
RMM:   4    -0.874861502800E+02    0.10683E-04   -0.21001E-04    97   0.563E-02    0.279E-02
RMM:   5    -0.874861844824E+02   -0.34202E-04   -0.90612E-05    89   0.423E-02    0.146E-02
RMM:   6    -0.874862058220E+02   -0.21340E-04   -0.45114E-05    93   0.247E-02    0.580E-03
RMM:   7    -0.874862607101E+02   -0.54888E-04   -0.79351E-06    80   0.104E-02    0.403E-03
RMM:   8    -0.874863655187E+02   -0.10481E-03   -0.13633E-05    74   0.108E-02    0.344E-03
RMM:   9    -0.874864131433E+02   -0.47625E-04   -0.11183E-05    85   0.101E-02    0.275E-03
RMM:  10    -0.874864481111E+02   -0.34968E-04   -0.25499E-06    70   0.517E-03    0.745E-04
RMM:  11    -0.874864621104E+02   -0.13999E-04   -0.10585E-06    69   0.361E-03    0.826E-04
RMM:  12    -0.874864735158E+02   -0.11405E-04   -0.59782E-07    58   0.226E-03    0.459E-04
RMM:  13    -0.874864804985E+02   -0.69827E-05   -0.49667E-07    62   0.222E-03    0.381E-04
RMM:  14    -0.874864833086E+02   -0.28101E-05   -0.17050E-07    54   0.125E-03    0.114E-04
RMM:  15    -0.874864851227E+02   -0.18141E-05   -0.86718E-08    55   0.116E-03    0.136E-04
RMM:  16    -0.874864861590E+02   -0.10364E-05   -0.18107E-08    48   0.868E-04    0.920E-05
RMM:  17    -0.874864871521E+02   -0.99311E-06    0.00000E+00    39   0.892E-04
  28 F= -.87486487E+02 E0= -.87486487E+02  d E =-.188624E-11
  @ DRIVER MODE: Message from server: STATUS
  @ DRIVER MODE: Message from server: GETFORCE
  @ DRIVER MODE: Returning v,forces,stress 
  @ DRIVER MODE: Message from server: STATUS
  @ DRIVER MODE: Message from server: STATUS
  @ DRIVER MODE: Message from server: INIT
  @ DRIVER MODE: Receiving replica           1           1
  @ DRIVER MODE: Message from server: STATUS
  @ DRIVER MODE: Message from server: POSDATA
  @ DRIVER MODE: Reading POSDATA from server...
  @ DRIVER MODE: Reading POSDATA from server completed!
       N       E                     dE             d eps       ncg     rms          rms(c)
DAV:   1    -0.876475893713E+02   -0.16110E+00   -0.40749E+00    80   0.116E+01    0.184E+00
RMM:   2    -0.875377031308E+02    0.10989E+00   -0.24047E-01    85   0.254E+00    0.115E+00
RMM:   3    -0.874840726913E+02    0.53630E-01   -0.22076E-01    93   0.178E+00    0.182E-01
RMM:   4    -0.874839812807E+02    0.91411E-04   -0.30048E-03    96   0.218E-01    0.105E-01
RMM:   5    -0.874844839853E+02   -0.50270E-03   -0.14805E-03    88   0.164E-01    0.610E-02
RMM:   6    -0.874845341900E+02   -0.50205E-04   -0.69713E-04    93   0.979E-02    0.196E-02
RMM:   7    -0.874850238572E+02   -0.48967E-03   -0.10200E-04    86   0.361E-02    0.149E-02
RMM:   8    -0.874857470706E+02   -0.72321E-03   -0.13812E-04    84   0.348E-02    0.112E-02
RMM:   9    -0.874861216986E+02   -0.37463E-03   -0.12754E-04    90   0.329E-02    0.926E-03
RMM:  10    -0.874863518917E+02   -0.23019E-03   -0.26902E-05    88   0.162E-02    0.279E-03
RMM:  11    -0.874864316889E+02   -0.79797E-04   -0.10068E-05    90   0.962E-03    0.303E-03
RMM:  12    -0.874865028456E+02   -0.71157E-04   -0.37420E-06    74   0.619E-03    0.969E-04
RMM:  13    -0.874865404885E+02   -0.37643E-04   -0.15646E-06    66   0.355E-03    0.535E-04
RMM:  14    -0.874865541738E+02   -0.13685E-04   -0.58135E-07    58   0.222E-03    0.342E-04
RMM:  15    -0.874865698092E+02   -0.15635E-04   -0.44530E-07    62   0.221E-03    0.242E-04
RMM:  16    -0.874865743442E+02   -0.45350E-05   -0.14050E-07    56   0.124E-03    0.112E-04
RMM:  17    -0.874865767346E+02   -0.23904E-05   -0.48788E-08    49   0.106E-03    0.529E-05
RMM:  18    -0.874865783757E+02   -0.16411E-05   -0.31640E-08    51   0.100E-03    0.544E-05
RMM:  19    -0.874865790501E+02   -0.67438E-06   -0.21953E-09    47   0.842E-04
  29 F= -.87486579E+02 E0= -.87486579E+02  d E =-.481728E-12
  @ DRIVER MODE: Message from server: STATUS
  @ DRIVER MODE: Message from server: GETFORCE
  @ DRIVER MODE: Returning v,forces,stress 
  @ DRIVER MODE: Message from server: STATUS
  @ DRIVER MODE: Message from server: STATUS
  @ DRIVER MODE: Message from server: INIT
  @ DRIVER MODE: Receiving replica           1           1
  @ DRIVER MODE: Message from server: STATUS
  @ DRIVER MODE: Message from server: POSDATA
  @ DRIVER MODE: Reading POSDATA from server...
  @ DRIVER MODE: Reading POSDATA from server completed!
       N       E                     dE             d eps       ncg     rms          rms(c)
DAV:   1    -0.874983636015E+02   -0.11785E-01   -0.26213E-01    88   0.285E+00    0.482E-01
RMM:   2    -0.874906636511E+02    0.77000E-02   -0.17324E-02    85   0.647E-01    0.302E-01
RMM:   3    -0.874868595099E+02    0.38041E-02   -0.15745E-02    94   0.451E-01    0.473E-02
RMM:   4    -0.874868900345E+02   -0.30525E-04   -0.19480E-04    95   0.562E-02    0.261E-02
RMM:   5    -0.874869859548E+02   -0.95920E-04   -0.10993E-04    85   0.421E-02    0.176E-02
RMM:   6    -0.874869924400E+02   -0.64852E-05   -0.51324E-05    93   0.257E-02    0.459E-03
RMM:   7    -0.874870502709E+02   -0.57831E-04   -0.87068E-06    78   0.976E-03    0.380E-03
RMM:   8    -0.874871025236E+02   -0.52253E-04   -0.77932E-06    75   0.793E-03    0.268E-03
RMM:   9    -0.874871392236E+02   -0.36700E-04   -0.82783E-06    75   0.788E-03    0.147E-03
RMM:  10    -0.874871634537E+02   -0.24230E-04   -0.31284E-06    70   0.475E-03    0.134E-03
RMM:  11    -0.874871721678E+02   -0.87141E-05   -0.13975E-06    70   0.401E-03    0.847E-04
RMM:  12    -0.874871778029E+02   -0.56350E-05   -0.46756E-07    66   0.211E-03    0.551E-04
RMM:  13    -0.874871813112E+02   -0.35083E-05   -0.31615E-07    64   0.189E-03    0.254E-04
RMM:  14    -0.874871835486E+02   -0.22374E-05   -0.13941E-07    61   0.123E-03    0.132E-04
RMM:  15    -0.874871846361E+02   -0.10875E-05   -0.41124E-08    53   0.927E-04    0.612E-05
RMM:  16    -0.874871862983E+02   -0.16622E-05   -0.25744E-08    46   0.967E-04    0.732E-05
RMM:  17    -0.874871865899E+02   -0.29157E-06    0.00000E+00    45   0.763E-04
  30 F= -.87487187E+02 E0= -.87487187E+02  d E =-.450360E-12
  @ DRIVER MODE: Message from server: STATUS
  @ DRIVER MODE: Message from server: GETFORCE
  @ DRIVER MODE: Returning v,forces,stress 
  @ DRIVER MODE: Message from server: STATUS
  @ DRIVER MODE: Message from server: STATUS
  @ DRIVER MODE: Message from server: INIT
  @ DRIVER MODE: Receiving replica           1           1
  @ DRIVER MODE: Message from server: STATUS
  @ DRIVER MODE: Message from server: POSDATA
  @ DRIVER MODE: Reading POSDATA from server...
  @ DRIVER MODE: Reading POSDATA from server completed!
       N       E                     dE             d eps       ncg     rms          rms(c)
DAV:   1    -0.874886662469E+02   -0.14799E-02   -0.32117E-02    88   0.102E+00    0.170E-01
RMM:   2    -0.874877095897E+02    0.95666E-03   -0.19552E-03    82   0.223E-01    0.107E-01
RMM:   3    -0.874872198719E+02    0.48972E-03   -0.19135E-03    94   0.164E-01    0.165E-02
RMM:   4    -0.874872232125E+02   -0.33406E-05   -0.23914E-05    93   0.197E-02    0.834E-03
RMM:   5    -0.874872341284E+02   -0.10916E-04   -0.95403E-06    88   0.136E-02    0.529E-03
RMM:   6    -0.874872376176E+02   -0.34891E-05   -0.51453E-06    83   0.832E-03    0.167E-03
RMM:   7    -0.874872487695E+02   -0.11152E-04   -0.91937E-07    61   0.341E-03    0.116E-03
RMM:   8    -0.874872606599E+02   -0.11890E-04   -0.10822E-06    59   0.291E-03    0.858E-04
RMM:   9    -0.874872689340E+02   -0.82742E-05   -0.13188E-06    59   0.304E-03    0.398E-04
RMM:  10    -0.874872741168E+02   -0.51828E-05   -0.57045E-07    65   0.217E-03    0.480E-04
RMM:  11    -0.874872761864E+02   -0.20696E-05   -0.24224E-07    57   0.138E-03    0.180E-04
RMM:  12    -0.874872779829E+02   -0.17965E-05   -0.18145E-07    63   0.142E-03    0.231E-04
RMM:  13    -0.874872789262E+02   -0.94330E-06   -0.37302E-08    49   0.919E-04
  31 F= -.87487279E+02 E0= -.87487279E+02  d E =-.495529E-12
  @ DRIVER MODE: Message from server: STATUS
  @ DRIVER MODE: Message from server: GETFORCE
  @ DRIVER MODE: Returning v,forces,stress 
  @ DRIVER MODE: Message from server: STATUS
  @ DRIVER MODE: Message from server: STATUS
  @ DRIVER MODE: Message from server: INIT
  @ DRIVER MODE: Receiving replica           1           1
  @ DRIVER MODE: Message from server: STATUS
  @ DRIVER MODE: Message from server: POSDATA
  @ DRIVER MODE: Reading POSDATA from server...
  @ DRIVER MODE: Reading POSDATA from server completed!
       N       E                     dE             d eps       ncg     rms          rms(c)
DAV:   1    -0.874943269297E+02   -0.70489E-02   -0.15657E-01    88   0.229E+00    0.359E-01
RMM:   2    -0.874895744450E+02    0.47525E-02   -0.99873E-03    84   0.518E-01    0.226E-01
RMM:   3    -0.874871746531E+02    0.23998E-02   -0.97776E-03    94   0.369E-01    0.356E-02
RMM:   4    -0.874871994040E+02   -0.24751E-04   -0.12833E-04    95   0.463E-02    0.191E-02
RMM:   5    -0.874872495931E+02   -0.50189E-04   -0.41755E-05    87   0.273E-02    0.108E-02
RMM:   6    -0.874872711163E+02   -0.21523E-04   -0.32652E-05    92   0.207E-02    0.525E-03
RMM:   7    -0.874873196212E+02   -0.48505E-04   -0.63534E-06    78   0.959E-03    0.317E-03
RMM:   8    -0.874873908077E+02   -0.71186E-04   -0.93946E-06    75   0.907E-03    0.323E-03
RMM:   9    -0.874874187206E+02   -0.27913E-04   -0.62853E-06    79   0.765E-03    0.126E-03
RMM:  10    -0.874874384240E+02   -0.19703E-04   -0.16300E-06    69   0.368E-03    0.148E-03
RMM:  11    -0.874874494402E+02   -0.11016E-04   -0.10009E-06    69   0.303E-03    0.402E-04
RMM:  12    -0.874874571921E+02   -0.77519E-05   -0.63388E-07    66   0.245E-03    0.494E-04
RMM:  13    -0.874874607793E+02   -0.35873E-05   -0.29607E-07    57   0.155E-03    0.257E-04
RMM:  14    -0.874874632369E+02   -0.24575E-05   -0.18608E-07    61   0.152E-03    0.218E-04
RMM:  15    -0.874874641281E+02   -0.89123E-06   -0.45298E-08    52   0.883E-04
  32 F= -.87487464E+02 E0= -.87487464E+02  d E =-.387078E-12
  @ DRIVER MODE: Message from server: STATUS
  @ DRIVER MODE: Message from server: GETFORCE
  @ DRIVER MODE: Returning v,forces,stress 
  @ DRIVER MODE: Message from server: STATUS
  @ DRIVER MODE: Message from server: STATUS
  @ DRIVER MODE: Message from server: INIT
  @ DRIVER MODE: Receiving replica           1           1
  @ DRIVER MODE: Message from server: STATUS
  @ DRIVER MODE: Message from server: POSDATA
  @ DRIVER MODE: Reading POSDATA from server...
  @ DRIVER MODE: Reading POSDATA from server completed!
       N       E                     dE             d eps       ncg     rms          rms(c)
DAV:   1    -0.875239022649E+02   -0.36439E-01   -0.95650E-01    80   0.559E+00    0.856E-01
RMM:   2    -0.874987596480E+02    0.25143E-01   -0.55484E-02    84   0.123E+00    0.528E-01
RMM:   3    -0.874863700720E+02    0.12390E-01   -0.50692E-02    93   0.845E-01    0.975E-02
RMM:   4    -0.874863775906E+02   -0.75185E-05   -0.83186E-04    96   0.114E-01    0.557E-02
RMM:   5    -0.874865785955E+02   -0.20100E-03   -0.38977E-04    91   0.805E-02    0.281E-02
RMM:   6    -0.874867005462E+02   -0.12195E-03   -0.25730E-04    91   0.579E-02    0.191E-02
RMM:   7    -0.874868997754E+02   -0.19923E-03   -0.61656E-05    84   0.317E-02    0.810E-03
RMM:   8    -0.874872442807E+02   -0.34451E-03   -0.78237E-05    78   0.296E-02    0.145E-02
RMM:   9    -0.874873464711E+02   -0.10219E-03   -0.63690E-05    93   0.273E-02    0.431E-03
RMM:  10    -0.874874381899E+02   -0.91719E-04   -0.89685E-06    79   0.862E-03    0.509E-03
RMM:  11    -0.874874892689E+02   -0.51079E-04   -0.69879E-06    82   0.866E-03    0.109E-03
RMM:  12    -0.874875148393E+02   -0.25570E-04   -0.11558E-06    70   0.336E-03    0.635E-04
RMM:  13    -0.874875408608E+02   -0.26021E-04   -0.13869E-06    65   0.323E-03    0.548E-04
RMM:  14    -0.874875510701E+02   -0.10209E-04   -0.46900E-07    62   0.204E-03    0.491E-04
RMM:  15    -0.874875558646E+02   -0.47946E-05   -0.20466E-07    62   0.158E-03    0.139E-04
RMM:  16    -0.874875595922E+02   -0.37276E-05   -0.86947E-08    56   0.125E-03    0.103E-04
RMM:  17    -0.874875609007E+02   -0.13085E-05   -0.19450E-08    53   0.900E-04    0.892E-05
RMM:  18    -0.874875623151E+02   -0.14144E-05   -0.90814E-09    44   0.800E-04    0.374E-05
RMM:  19    -0.874875629243E+02   -0.60919E-06   -0.27469E-09    46   0.790E-04
  33 F= -.87487563E+02 E0= -.87487563E+02  d E =-.217473E-12
  @ DRIVER MODE: Message from server: STATUS
  @ DRIVER MODE: Message from server: GETFORCE
  @ DRIVER MODE: Returning v,forces,stress 
  @ DRIVER MODE: Message from server: STATUS
  @ DRIVER MODE: Message from server: STATUS
  @ DRIVER MODE: Message from server: INIT
  @ DRIVER MODE: Receiving replica           1           1
[...]
  54 F= -.87490221E+02 E0= -.87490221E+02  d E =-.316889E-12
  @ DRIVER MODE: Message from server: STATUS
  @ DRIVER MODE: Message from server: GETFORCE
  @ DRIVER MODE: Returning v,forces,stress 
  @ DRIVER MODE: Message from server: STATUS
  @ DRIVER MODE: Message from server: STATUS
  @ DRIVER MODE: Message from server: INIT
  @ DRIVER MODE: Receiving replica           1           1
  @ DRIVER MODE: Message from server: STATUS
  @ DRIVER MODE: Message from server: POSDATA
  @ DRIVER MODE: Reading POSDATA from server...
  @ DRIVER MODE: Reading POSDATA from server completed!
       N       E                     dE             d eps       ncg     rms          rms(c)
DAV:   1    -0.874988694101E+02   -0.86495E-02   -0.19371E-01    88   0.254E+00    0.413E-01
RMM:   2    -0.874928021585E+02    0.60673E-02   -0.12235E-02    82   0.582E-01    0.252E-01
RMM:   3    -0.874899680813E+02    0.28341E-02   -0.11790E-02    92   0.414E-01    0.498E-02
RMM:   4    -0.874899639216E+02    0.41597E-05   -0.21723E-04    95   0.639E-02    0.199E-02
RMM:   5    -0.874899937133E+02   -0.29792E-04   -0.69680E-05    93   0.312E-02    0.133E-02
RMM:   6    -0.874900305010E+02   -0.36788E-04   -0.92786E-05    89   0.357E-02    0.144E-02
RMM:   7    -0.874900766736E+02   -0.46173E-04   -0.25047E-05    85   0.203E-02    0.319E-03
RMM:   8    -0.874901507234E+02   -0.74050E-04   -0.21179E-05    83   0.159E-02    0.888E-03
RMM:   9    -0.874901992226E+02   -0.48499E-04   -0.16884E-05    81   0.150E-02    0.990E-04
RMM:  10    -0.874902270195E+02   -0.27797E-04   -0.21224E-06    69   0.465E-03    0.921E-04
RMM:  11    -0.874902484532E+02   -0.21434E-04   -0.13991E-06    57   0.316E-03    0.448E-04
RMM:  12    -0.874902615634E+02   -0.13110E-04   -0.91231E-07    61   0.254E-03    0.233E-04
RMM:  13    -0.874902675567E+02   -0.59932E-05   -0.41088E-07    60   0.184E-03    0.129E-04
RMM:  14    -0.874902704678E+02   -0.29111E-05   -0.20199E-07    61   0.149E-03    0.973E-05
RMM:  15    -0.874902725631E+02   -0.20953E-05   -0.69989E-08    58   0.111E-03    0.138E-04
RMM:  16    -0.874902736080E+02   -0.10448E-05   -0.10304E-08    48   0.850E-04    0.885E-05
RMM:  17    -0.874902742788E+02   -0.67084E-06   -0.11107E-08    49   0.853E-04
  55 F= -.87490274E+02 E0= -.87490274E+02  d E =-.387983E-12
  @ DRIVER MODE: Message from server: STATUS
  @ DRIVER MODE: Message from server: GETFORCE
  @ DRIVER MODE: Returning v,forces,stress 
  @ DRIVER MODE: Message from server: STATUS
  @ DRIVER MODE: Message from server: STATUS
  @ DRIVER MODE: Message from server: INIT
  @ DRIVER MODE: Receiving replica           1           1
  @ DRIVER MODE: Message from server: STATUS
  @ DRIVER MODE: Message from server: POSDATA
  @ DRIVER MODE: Reading POSDATA from server...
  @ DRIVER MODE: Reading POSDATA from server completed!
       N       E                     dE             d eps       ncg     rms          rms(c)
DAV:   1    -0.875043180560E+02   -0.14044E-01   -0.31636E-01    88   0.324E+00    0.529E-01
RMM:   2    -0.874944013829E+02    0.99167E-02   -0.20244E-02    83   0.750E-01    0.323E-01
RMM:   3    -0.874898429302E+02    0.45585E-02   -0.19496E-02    93   0.528E-01    0.626E-02
RMM:   4    -0.874898334069E+02    0.95233E-05   -0.34359E-04    95   0.796E-02    0.272E-02
RMM:   5    -0.874898856652E+02   -0.52258E-04   -0.11818E-04    93   0.410E-02    0.174E-02
RMM:   6    -0.874899378283E+02   -0.52163E-04   -0.14444E-04    89   0.443E-02    0.175E-02
RMM:   7    -0.874900025434E+02   -0.64715E-04   -0.35973E-05    85   0.245E-02    0.404E-03
RMM:   8    -0.874901083976E+02   -0.10585E-03   -0.34508E-05    84   0.204E-02    0.116E-02
RMM:   9    -0.874901660789E+02   -0.57681E-04   -0.23843E-05    86   0.179E-02    0.117E-03
RMM:  10    -0.874902029878E+02   -0.36909E-04   -0.40525E-06    79   0.623E-03    0.161E-03
RMM:  11    -0.874902325118E+02   -0.29524E-04   -0.14902E-06    65   0.359E-03    0.607E-04
RMM:  12    -0.874902500242E+02   -0.17512E-04   -0.88462E-07    57   0.255E-03    0.419E-04
RMM:  13    -0.874902609522E+02   -0.10928E-04   -0.67883E-07    63   0.232E-03    0.192E-04
RMM:  14    -0.874902649792E+02   -0.40270E-05   -0.28896E-07    58   0.156E-03    0.151E-04
RMM:  15    -0.874902676661E+02   -0.26870E-05   -0.11734E-07    60   0.121E-03    0.166E-04
RMM:  16    -0.874902686116E+02   -0.94540E-06   -0.19553E-08    49   0.858E-04
  56 F= -.87490269E+02 E0= -.87490269E+02  d E =-.407630E-12
  @ DRIVER MODE: Message from server: STATUS
  @ DRIVER MODE: Message from server: GETFORCE
  @ DRIVER MODE: Returning v,forces,stress 
  @ DRIVER MODE: Message from server: STATUS
  @ DRIVER MODE: Message from server: STATUS
  @ DRIVER MODE: Message from server: INIT
  @ DRIVER MODE: Receiving replica           1           1
  @ DRIVER MODE: Message from server: STATUS
  @ DRIVER MODE: Message from server: POSDATA
  @ DRIVER MODE: Reading POSDATA from server...
  @ DRIVER MODE: Reading POSDATA from server completed!
       N       E                     dE             d eps       ncg     rms          rms(c)
DAV:   1    -0.874941620247E+02   -0.38944E-02   -0.86939E-02    88   0.170E+00    0.277E-01
RMM:   2    -0.874914182022E+02    0.27438E-02   -0.55595E-03    86   0.393E-01    0.169E-01
RMM:   3    -0.874901274082E+02    0.12908E-02   -0.53671E-03    92   0.277E-01    0.328E-02
RMM:   4    -0.874901325532E+02   -0.51450E-05   -0.95065E-05    95   0.418E-02    0.142E-02
RMM:   5    -0.874901545346E+02   -0.21981E-04   -0.32373E-05    94   0.214E-02    0.913E-03
RMM:   6    -0.874901758026E+02   -0.21268E-04   -0.40576E-05    91   0.235E-02    0.930E-03
RMM:   7    -0.874902027205E+02   -0.26918E-04   -0.10725E-05    84   0.132E-02    0.216E-03
RMM:   8    -0.874902431895E+02   -0.40469E-04   -0.10572E-05    76   0.113E-02    0.604E-03
RMM:   9    -0.874902654724E+02   -0.22283E-04   -0.70876E-06    78   0.954E-03    0.680E-04
RMM:  10    -0.874902775607E+02   -0.12088E-04   -0.11431E-06    71   0.377E-03    0.461E-04
RMM:  11    -0.874902881392E+02   -0.10578E-04   -0.89994E-07    68   0.276E-03    0.524E-04
RMM:  12    -0.874902937633E+02   -0.56241E-05   -0.50579E-07    60   0.194E-03    0.273E-04
RMM:  13    -0.874902973399E+02   -0.35766E-05   -0.33083E-07    63   0.180E-03    0.136E-04
RMM:  14    -0.874902987214E+02   -0.13815E-05   -0.10476E-07    56   0.112E-03    0.111E-04
RMM:  15    -0.874903002010E+02   -0.14796E-05   -0.36709E-08    52   0.964E-04    0.334E-05
RMM:  16    -0.874903008189E+02   -0.61786E-06   -0.61875E-09    50   0.870E-04
  57 F= -.87490301E+02 E0= -.87490301E+02  d E =-.343212E-12
  @ DRIVER MODE: Message from server: STATUS
  @ DRIVER MODE: Message from server: GETFORCE
  @ DRIVER MODE: Returning v,forces,stress 
  @ DRIVER MODE: Message from server: STATUS
  @ DRIVER MODE: Message from server: STATUS
  @ DRIVER MODE: Message from server: INIT
  @ DRIVER MODE: Receiving replica           1           1
  @ DRIVER MODE: Message from server: STATUS
  @ DRIVER MODE: Message from server: POSDATA
  @ DRIVER MODE: Reading POSDATA from server...
  @ DRIVER MODE: Reading POSDATA from server completed!
       N       E                     dE             d eps       ncg     rms          rms(c)
DAV:   1    -0.874910003007E+02   -0.70010E-03   -0.15385E-02    96   0.699E-01    0.116E-01
RMM:   2    -0.874905162933E+02    0.48401E-03   -0.98489E-04    86   0.162E-01    0.707E-02
RMM:   3    -0.874902955154E+02    0.22078E-03   -0.95706E-04    90   0.114E-01    0.145E-02
RMM:   4    -0.874902935055E+02    0.20099E-05   -0.17061E-05    94   0.177E-02    0.643E-03
RMM:   5    -0.874902949406E+02   -0.14351E-05   -0.72926E-06    86   0.104E-02    0.405E-03
RMM:   6    -0.874902971099E+02   -0.21694E-05   -0.72122E-06    84   0.979E-03    0.366E-03
RMM:   7    -0.874903012266E+02   -0.41167E-05   -0.14705E-06    66   0.514E-03    0.913E-04
RMM:   8    -0.874903083008E+02   -0.70742E-05   -0.16103E-06    63   0.493E-03    0.214E-03
RMM:   9    -0.874903149456E+02   -0.66448E-05   -0.71610E-07    61   0.282E-03    0.839E-04
RMM:  10    -0.874903181360E+02   -0.31904E-05   -0.43425E-07    67   0.231E-03    0.209E-04
RMM:  11    -0.874903215825E+02   -0.34465E-05   -0.24730E-07    58   0.151E-03    0.346E-04
RMM:  12    -0.874903235271E+02   -0.19446E-05   -0.10596E-07    54   0.102E-03    0.232E-04
RMM:  13    -0.874903254731E+02   -0.19461E-05   -0.11890E-07    53   0.119E-03    0.888E-05
RMM:  14    -0.874903256481E+02   -0.17503E-06   -0.10595E-08    48   0.806E-04
  58 F= -.87490326E+02 E0= -.87490326E+02  d E =-.338542E-12
  @ DRIVER MODE: Message from server: STATUS
  @ DRIVER MODE: Message from server: GETFORCE
  @ DRIVER MODE: Returning v,forces,stress 
  @ DRIVER MODE: Message from server: STATUS
  @ DRIVER MODE: Message from server: STATUS
  @ DRIVER MODE: Message from server: INIT
  @ DRIVER MODE: Receiving replica           1           1
  @ DRIVER MODE: Message from server: STATUS
  @ DRIVER MODE: Message from server: POSDATA
  @ DRIVER MODE: Reading POSDATA from server...
  @ DRIVER MODE: Reading POSDATA from server completed!
       N       E                     dE             d eps       ncg     rms          rms(c)
DAV:   1    -0.874937636087E+02   -0.34381E-02   -0.78484E-02    96   0.159E+00    0.261E-01
RMM:   2    -0.874913610001E+02    0.24026E-02   -0.49437E-03    84   0.366E-01    0.161E-01
RMM:   3    -0.874902376312E+02    0.11234E-02   -0.49067E-03    93   0.262E-01    0.343E-02
RMM:   4    -0.874902279228E+02    0.97084E-05   -0.83670E-05    96   0.402E-02    0.151E-02
RMM:   5    -0.874902423180E+02   -0.14395E-04   -0.45437E-05    90   0.268E-02    0.945E-03
RMM:   6    -0.874902518544E+02   -0.95364E-05   -0.36861E-05    91   0.226E-02    0.816E-03
RMM:   7    -0.874902720609E+02   -0.20206E-04   -0.75460E-06    79   0.116E-02    0.200E-03
RMM:   8    -0.874903035374E+02   -0.31476E-04   -0.77130E-06    76   0.104E-02    0.564E-03
RMM:   9    -0.874903235788E+02   -0.20041E-04   -0.53583E-06    82   0.822E-03    0.883E-04
RMM:  10    -0.874903368577E+02   -0.13279E-04   -0.14539E-06    66   0.442E-03    0.978E-04
RMM:  11    -0.874903450267E+02   -0.81690E-05   -0.54816E-07    62   0.228E-03    0.839E-04
RMM:  12    -0.874903536097E+02   -0.85830E-05   -0.60838E-07    63   0.233E-03    0.186E-04
RMM:  13    -0.874903566589E+02   -0.30492E-05   -0.24073E-07    52   0.131E-03    0.160E-04
RMM:  14    -0.874903589254E+02   -0.22664E-05   -0.15785E-07    50   0.126E-03    0.104E-04
RMM:  15    -0.874903598774E+02   -0.95200E-06   -0.85699E-08    57   0.115E-03
  59 F= -.87490360E+02 E0= -.87490360E+02  d E =-.299698E-12
  @ DRIVER MODE: Message from server: STATUS
  @ DRIVER MODE: Message from server: GETFORCE
  @ DRIVER MODE: Returning v,forces,stress 
  @ DRIVER MODE: Message from server: STATUS
  @ DRIVER MODE: Message from server: STATUS
  @ DRIVER MODE: Message from server: INIT
  @ DRIVER MODE: Receiving replica           1           1
  @ DRIVER MODE: Message from server: STATUS
  @ DRIVER MODE: Message from server: POSDATA
  @ DRIVER MODE: Reading POSDATA from server...
  @ DRIVER MODE: Reading POSDATA from server completed!
       N       E                     dE             d eps       ncg     rms          rms(c)
DAV:   1    -0.874913405386E+02   -0.98161E-03   -0.22235E-02    88   0.859E-01    0.140E-01
RMM:   2    -0.874906675778E+02    0.67296E-03   -0.13707E-03    82   0.195E-01    0.874E-02
RMM:   3    -0.874903332112E+02    0.33437E-03   -0.14095E-03    89   0.142E-01    0.182E-02
RMM:   4    -0.874903296386E+02    0.35727E-05   -0.22372E-05    96   0.208E-02    0.775E-03
RMM:   5    -0.874903325557E+02   -0.29171E-05   -0.12149E-05    89   0.141E-02    0.478E-03
RMM:   6    -0.874903350266E+02   -0.24709E-05   -0.80643E-06    86   0.108E-02    0.370E-03
RMM:   7    -0.874903416005E+02   -0.65739E-05   -0.15399E-06    59   0.539E-03    0.111E-03
RMM:   8    -0.874903502060E+02   -0.86055E-05   -0.17081E-06    64   0.507E-03    0.219E-03
RMM:   9    -0.874903591180E+02   -0.89121E-05   -0.10980E-06    59   0.321E-03    0.867E-04
RMM:  10    -0.874903619567E+02   -0.28386E-05   -0.56200E-07    70   0.261E-03    0.325E-04
RMM:  11    -0.874903663200E+02   -0.43633E-05   -0.35026E-07    54   0.163E-03    0.393E-04
RMM:  12    -0.874903685327E+02   -0.22127E-05   -0.18309E-07    51   0.117E-03    0.259E-04
RMM:  13    -0.874903708115E+02   -0.22787E-05   -0.18820E-07    59   0.140E-03    0.123E-04
RMM:  14    -0.874903709932E+02   -0.18177E-06   -0.33331E-08    52   0.818E-04
  60 F= -.87490371E+02 E0= -.87490371E+02  d E =-.270288E-12
  @ DRIVER MODE: Message from server: STATUS
  @ DRIVER MODE: Message from server: GETFORCE
  @ DRIVER MODE: Returning v,forces,stress 
  @ DRIVER MODE: Message from server: STATUS
  @ DRIVER MODE: Message from server: STATUS
  @ DRIVER MODE: Message from server: INIT
  @ DRIVER MODE: Receiving replica           1           1
  @ DRIVER MODE: Message from server: STATUS
  @ DRIVER MODE: Message from server: POSDATA
  @ DRIVER MODE: Reading POSDATA from server...
  @ DRIVER MODE: Reading POSDATA from server completed!
       N       E                     dE             d eps       ncg     rms          rms(c)
DAV:   1    -0.874912254138E+02   -0.85460E-03   -0.19297E-02    88   0.786E-01    0.129E-01
RMM:   2    -0.874906447035E+02    0.58071E-03   -0.11715E-03    83   0.175E-01    0.815E-02
RMM:   3    -0.874903502978E+02    0.29441E-03   -0.12017E-03    88   0.130E-01    0.161E-02
RMM:   4    -0.874903481608E+02    0.21370E-05   -0.17747E-05    95   0.183E-02    0.657E-03
RMM:   5    -0.874903508885E+02   -0.27277E-05   -0.78741E-06    86   0.113E-02    0.392E-03
RMM:   6    -0.874903535180E+02   -0.26296E-05   -0.54569E-06    80   0.862E-03    0.307E-03
RMM:   7    -0.874903594592E+02   -0.59412E-05   -0.11543E-06    61   0.441E-03    0.980E-04
RMM:   8    -0.874903664712E+02   -0.70120E-05   -0.92607E-07    60   0.366E-03    0.152E-03
RMM:   9    -0.874903753932E+02   -0.89220E-05   -0.98842E-07    55   0.263E-03    0.714E-04
RMM:  10    -0.874903784717E+02   -0.30785E-05   -0.54810E-07    66   0.250E-03    0.468E-04
RMM:  11    -0.874903818085E+02   -0.33368E-05   -0.28324E-07    53   0.143E-03    0.514E-04
RMM:  12    -0.874903837949E+02   -0.19863E-05   -0.17254E-07    55   0.127E-03    0.171E-04
RMM:  13    -0.874903851042E+02   -0.13093E-05   -0.11286E-07    59   0.118E-03    0.904E-05
RMM:  14    -0.874903855597E+02   -0.45551E-06   -0.73622E-09    47   0.758E-04
  61 F= -.87490386E+02 E0= -.87490386E+02  d E =-.321947E-12
  @ DRIVER MODE: Message from server: STATUS
  @ DRIVER MODE: Message from server: GETFORCE
  @ DRIVER MODE: Returning v,forces,stress 
  @ DRIVER MODE: Message from server: STATUS
  @ DRIVER MODE: Message from server: STATUS
  @ DRIVER MODE: Message from server: INIT
  @ DRIVER MODE: Receiving replica           1           1
  @ DRIVER MODE: Message from server: STATUS
  @ DRIVER MODE: Message from server: POSDATA
  @ DRIVER MODE: Reading POSDATA from server...
  @ DRIVER MODE: Reading POSDATA from server completed!
       N       E                     dE             d eps       ncg     rms          rms(c)
DAV:   1    -0.874922047090E+02   -0.18196E-02   -0.41319E-02    88   0.116E+00    0.191E-01
RMM:   2    -0.874909627950E+02    0.12419E-02   -0.24625E-03    80   0.255E-01    0.120E-01
RMM:   3    -0.874903421994E+02    0.62060E-03   -0.25160E-03    90   0.190E-01    0.214E-02
RMM:   4    -0.874903400987E+02    0.21007E-05   -0.33569E-05    95   0.250E-02    0.852E-03
RMM:   5    -0.874903456838E+02   -0.55851E-05   -0.11540E-05    88   0.134E-02    0.503E-03
RMM:   6    -0.874903507852E+02   -0.51014E-05   -0.85934E-06    84   0.106E-02    0.387E-03
RMM:   7    -0.874903609356E+02   -0.10150E-04   -0.20547E-06    61   0.573E-03    0.134E-03
RMM:   8    -0.874903751895E+02   -0.14254E-04   -0.21912E-06    61   0.495E-03    0.229E-03
RMM:   9    -0.874903867588E+02   -0.11569E-04   -0.19063E-06    64   0.413E-03    0.481E-04
RMM:  10    -0.874903916314E+02   -0.48726E-05   -0.65269E-07    67   0.268E-03    0.698E-04
RMM:  11    -0.874903973008E+02   -0.56694E-05   -0.45870E-07    55   0.183E-03    0.379E-04
RMM:  12    -0.874903993419E+02   -0.20411E-05   -0.25233E-07    62   0.153E-03    0.106E-04
RMM:  13    -0.874904009496E+02   -0.16077E-05   -0.11059E-07    51   0.109E-03    0.633E-05
RMM:  14    -0.874904021182E+02   -0.11685E-05   -0.69718E-08    52   0.101E-03    0.565E-05
RMM:  15    -0.874904026490E+02   -0.53079E-06   -0.98801E-09    47   0.837E-04
  62 F= -.87490403E+02 E0= -.87490403E+02  d E =-.382167E-12
  @ DRIVER MODE: Message from server: STATUS
  @ DRIVER MODE: Message from server: GETFORCE
  @ DRIVER MODE: Returning v,forces,stress 
  @ DRIVER MODE: Message from server: STATUS
  @ DRIVER MODE: Message from server: STATUS
  @ DRIVER MODE: Message from server: INIT
  @ DRIVER MODE: Receiving replica           1           1
  @ DRIVER MODE: Message from server: STATUS
  @ DRIVER MODE: Message from server: POSDATA
  @ DRIVER MODE: Reading POSDATA from server...
  @ DRIVER MODE: Reading POSDATA from server completed!
       N       E                     dE             d eps       ncg     rms          rms(c)
DAV:   1    -0.874931720653E+02   -0.27699E-02   -0.63944E-02    88   0.147E+00    0.241E-01
RMM:   2    -0.874912501059E+02    0.19220E-02   -0.38769E-03    83   0.332E-01    0.149E-01
RMM:   3    -0.874903213888E+02    0.92872E-03   -0.36947E-03    92   0.235E-01    0.243E-02
RMM:   4    -0.874903203743E+02    0.10145E-05   -0.50600E-05    95   0.306E-02    0.108E-02
RMM:   5    -0.874903287085E+02   -0.83342E-05   -0.16393E-05    90   0.152E-02    0.643E-03
RMM:   6    -0.874903377879E+02   -0.90794E-05   -0.15054E-05    89   0.144E-02    0.535E-03
RMM:   7    -0.874903526201E+02   -0.14832E-04   -0.38135E-06    75   0.766E-03    0.167E-03
RMM:   8    -0.874903766740E+02   -0.24054E-04   -0.40756E-06    74   0.644E-03    0.326E-03
RMM:   9    -0.874903887219E+02   -0.12048E-04   -0.26347E-06    68   0.587E-03    0.500E-04
RMM:  10    -0.874903968158E+02   -0.80940E-05   -0.72058E-07    65   0.303E-03    0.798E-04
RMM:  11    -0.874904032950E+02   -0.64791E-05   -0.47561E-07    56   0.195E-03    0.455E-04
RMM:  12    -0.874904076772E+02   -0.43822E-05   -0.41999E-07    65   0.204E-03    0.275E-04
RMM:  13    -0.874904093725E+02   -0.16954E-05   -0.14328E-07    54   0.112E-03    0.160E-04
RMM:  14    -0.874904110476E+02   -0.16750E-05   -0.99600E-08    52   0.112E-03    0.737E-05
RMM:  15    -0.874904120011E+02   -0.95357E-06   -0.19774E-08    48   0.896E-04
  63 F= -.87490412E+02 E0= -.87490412E+02  d E =-.497101E-12
  @ DRIVER MODE: Message from server: STATUS
  @ DRIVER MODE: Message from server: GETFORCE
  @ DRIVER MODE: Returning v,forces,stress 
  @ DRIVER MODE: Message from server: STATUS
  @ DRIVER MODE: Message from server: STATUS
  @ DRIVER MODE: Message from server: INIT
  @ DRIVER MODE: Receiving replica           1           1
  @ DRIVER MODE: Message from server: STATUS
  @ DRIVER MODE: Message from server: POSDATA
  @ DRIVER MODE: Reading POSDATA from server...
  @ DRIVER MODE: Reading POSDATA from server completed!
       N       E                     dE             d eps       ncg     rms          rms(c)
DAV:   1    -0.874904894346E+02   -0.78387E-04   -0.17053E-03    88   0.238E-01    0.390E-02
RMM:   2    -0.874904409560E+02    0.48479E-04   -0.97038E-05    77   0.524E-02    0.239E-02
RMM:   3    -0.874904182804E+02    0.22676E-04   -0.95565E-05    82   0.375E-02    0.516E-03
RMM:   4    -0.874904177098E+02    0.57063E-06   -0.14528E-06    72   0.573E-03
  64 F= -.87490418E+02 E0= -.87490418E+02  d E =-.424477E-12
  @ DRIVER MODE: Message from server: STATUS
  @ DRIVER MODE: Message from server: GETFORCE
  @ DRIVER MODE: Returning v,forces,stress 
  @ DRIVER MODE: Message from server: STATUS
  @ DRIVER MODE: Message from server: EXIT
