 vasp.5.4.4.18Apr17-6-g9f103f2a35 (build Sep 04 2019 18:34:39) complex          
  
 executed on             LinuxIFC date 2012.06.17  19:04:03
 running on   48 total cores
 distrk:  each k-point on   48 cores,    1 groups
 distr:  one band on NCORES_PER_BAND=  12 cores,    4 groups


--------------------------------------------------------------------------------------------------------


 INCAR:
 POTCAR:    PAW_PBE H 15Jun2001                   
 POTCAR:    PAW_PBE O 08Apr2002                   
 POTCAR:    PAW_PBE H 15Jun2001                   
  local pseudopotential read in
  atomic valenz-charges read in
  non local Contribution for L=           0  read in
    real space projection operators read in
  non local Contribution for L=           0  read in
    real space projection operators read in
  non local Contribution for L=           1  read in
    real space projection operators read in
    PAW grid and wavefunctions read in
 
   number of l-projection  operators is LMAX  =           3
   number of lm-projection operators is LMMAX =           5
 
 POTCAR:    PAW_PBE O 08Apr2002                   
  local pseudopotential read in
  partial core-charges read in
  partial kinetic energy density read in
  kinetic energy density of atom read in
  atomic valenz-charges read in
  non local Contribution for L=           0  read in
    real space projection operators read in
  non local Contribution for L=           0  read in
    real space projection operators read in
  non local Contribution for L=           1  read in
    real space projection operators read in
  non local Contribution for L=           1  read in
    real space projection operators read in
    PAW grid and wavefunctions read in
 
   number of l-projection  operators is LMAX  =           4
   number of lm-projection operators is LMMAX =           8
 

 ----------------------------------------------------------------------------- 
|                                                                             |
|  ADVICE TO THIS USER RUNNING 'VASP/VAMP'   (HEAR YOUR MASTER'S VOICE ...):  |
|                                                                             |
|      You have a (more or less) 'large supercell' and for larger cells       |
|      it might be more efficient to use real space projection opertators     |
|      So try LREAL= Auto  in the INCAR   file.                               |
|      Mind:          For very  accurate calculation you might also keep the  |
|      reciprocal projection scheme          (i.e. LREAL=.FALSE.)             |
|                                                                             |
 ----------------------------------------------------------------------------- 

  PAW_PBE H 15Jun2001                   :
 energy of atom  1       EATOM=  -12.4884
 kinetic energy error for atom=    0.0098 (will be added to EATOM!!)
  PAW_PBE O 08Apr2002                   :
 energy of atom  2       EATOM= -432.3788
 kinetic energy error for atom=    0.1156 (will be added to EATOM!!)
 
 
 POSCAR:  H  O                                   
  positions in cartesian coordinates
  No initial velocities read in
 exchange correlation table for  LEXCH =        8
   RHO(1)=    0.500       N(1)  =     2000
   RHO(2)=  100.500       N(2)  =     4000
 


--------------------------------------------------------------------------------------------------------


 ion  position               nearest neighbor table
   1  0.517  0.482  0.425-  13 0.97
   2  0.583  0.517  0.443-  13 0.98
   3  0.510  0.514  0.576-  14 0.97
   4  0.509  0.443  0.552-  14 0.97
   5  0.611  0.489  0.543-  15 0.98
   6  0.682  0.476  0.515-  15 0.96
   7  0.418  0.438  0.478-  16 0.98
   8  0.448  0.371  0.453-  16 0.96
   9  0.320  0.498  0.538-  17 1.13
  10  0.391  0.538  0.506-  17 0.98
  11  0.495  0.570  0.478-  18 0.99
  12  0.470  0.633  0.516-  18 0.96
  13  0.539  0.525  0.421-   1 0.97   2 0.98
  14  0.531  0.472  0.583-   3 0.97   4 0.97
  15  0.644  0.504  0.510-   6 0.96   5 0.98
  16  0.460  0.414  0.470-   8 0.96   7 0.98
  17  0.360  0.501  0.498-  10 0.98   9 1.13
  18  0.467  0.585  0.516-  12 0.96  11 0.99
 
  LATTYP: Found a simple cubic cell.
 ALAT       =    20.0000000000
  
  Lattice vectors:
  
 A1 = (  20.0000000000,   0.0000000000,   0.0000000000)
 A2 = (   0.0000000000,  20.0000000000,   0.0000000000)
 A3 = (   0.0000000000,   0.0000000000,  20.0000000000)


Analysis of symmetry for initial positions (statically):
=====================================================================
 Subroutine PRICEL returns:
 Original cell was already a primitive cell.
 

 Routine SETGRP: Setting up the symmetry group for a 
 simple cubic supercell.


 Subroutine GETGRP returns: Found  1 space group operations
 (whereof  1 operations were pure point group operations)
 out of a pool of 48 trial point group operations.


The static configuration has the point symmetry C_1 .


Analysis of symmetry for dynamics (positions and initial velocities):
=====================================================================
 Subroutine PRICEL returns:
 Original cell was already a primitive cell.
 

 Routine SETGRP: Setting up the symmetry group for a 
 simple cubic supercell.


 Subroutine GETGRP returns: Found  1 space group operations
 (whereof  1 operations were pure point group operations)
 out of a pool of 48 trial point group operations.


The dynamic configuration has the point symmetry C_1 .


 Subroutine INISYM returns: Found  1 space group operations
 (whereof  1 operations are pure point group operations),
 and found     1 'primitive' translations

 
 
 KPOINTS: Monkhorst-Pack                          

Automatic generation of k-mesh.
Space group operators:
 irot       det(A)        alpha          n_x          n_y          n_z        tau_x        tau_y        tau_z
    1     1.000000     0.000000     1.000000     0.000000     0.000000     0.000000     0.000000     0.000000
 
 Subroutine IBZKPT returns following result:
 ===========================================
 
 Found      1 irreducible k-points:
 
 Following reciprocal coordinates:
            Coordinates               Weight
  0.000000  0.000000  0.000000      1.000000
 
 Following cartesian coordinates:
            Coordinates               Weight
  0.000000  0.000000  0.000000      1.000000
 


--------------------------------------------------------------------------------------------------------




 Dimension of arrays:
   k-points           NKPTS =      1   k-points in BZ     NKDIM =      1   number of bands    NBANDS=     36
   number of dos      NEDOS =    301   number of ions     NIONS =     18
   non local maximal  LDIM  =      4   non local SUM 2l+1 LMDIM =      8
   total plane-waves  NPLWV = 941192
   max r-space proj   IRMAX =      1   max aug-charges    IRDMAX=   1030
   dimension x,y,z NGX =    98 NGY =   98 NGZ =   98
   dimension x,y,z NGXF=   160 NGYF=  160 NGZF=  160
   support grid    NGXF=   160 NGYF=  160 NGZF=  160
   ions per type =              12   6
   NGX,Y,Z   is equivalent  to a cutoff of   8.15,  8.15,  8.15 a.u.
   NGXF,Y,Z  is equivalent  to a cutoff of  13.30, 13.30, 13.30 a.u.

 SYSTEM =  VaspCalc                                
 POSCAR =   H  O                                   

 Startparameter for this run:
   NWRITE =      1    write-flag & timer
   PREC   = med       normal or accurate (medium, high low for compatibility)
   ISTART =      0    job   : 0-new  1-cont  2-samecut
   ICHARG =      2    charge: 1-file 2-atom 10-const
   ISPIN  =      1    spin polarized calculation?
   LNONCOLLINEAR =      F non collinear calculations
   LSORBIT =      F    spin-orbit coupling
   INIWAV =      1    electr: 0-lowe 1-rand  2-diag
   LASPH  =      F    aspherical Exc in radial PAW
   METAGGA=      F    non-selfconsistent MetaGGA calc.

 Electronic Relaxation 1
   ENCUT  =  400.0 eV  29.40 Ry    5.42 a.u.  32.61 32.61 32.61*2*pi/ulx,y,z
   ENINI  =  400.0     initial cutoff
   ENAUG  =  605.4 eV  augmentation charge cutoff
   NELM   =    400;   NELMIN=  4; NELMDL=  0     # of ELM steps 
   EDIFF  = 0.1E-05   stopping-criterion for ELM
   LREAL  =      F    real-space projection
   NLSPLINE    = F    spline interpolate recip. space projectors
   LCOMPAT=      F    compatible to vasp.4.4
   GGA_COMPAT  = T    GGA compatible to vasp.4.4-vasp.4.6
   LMAXPAW     = -100 max onsite density
   LMAXMIX     =    2 max onsite mixed and CHGCAR
   VOSKOWN=      0    Vosko Wilk Nusair interpolation
   ROPT   =    0.00000   0.00000
 Ionic relaxation
   EDIFFG = 0.1E-04   stopping-criterion for IOM
   NSW    =    100    number of steps for IOM
   NBLOCK =      1;   KBLOCK =    100    inner block; outer block 
   IBRION =     -1    ionic relax: 0-MD 1-quasi-New 2-CG
   NFREE  =      0    steps in history (QN), initial steepest desc. (CG)
   ISIF   =      2    stress and relaxation
   IWAVPR =     10    prediction:  0-non 1-charg 2-wave 3-comb
   ISYM   =      2    0-nonsym 1-usesym 2-fastsym
   LCORR  =      T    Harris-Foulkes like correction to forces

   POTIM  = 0.5000    time-step for ionic-motion
   TEIN   =    0.0    initial temperature
   TEBEG  =    0.0;   TEEND  =   0.0 temperature during run
   SMASS  =  -3.00    Nose mass-parameter (am)
   estimated Nose-frequenzy (Omega)   =  0.10E-29 period in steps =****** mass=  -0.914E-26a.u.
   SCALEE = 1.0000    scale energy and forces
   NPACO  =    256;   APACO  = 16.0  distance and # of slots for P.C.
   PSTRESS=    0.0 pullay stress

  Mass of Ions in am
   POMASS =   1.00 16.00
  Ionic Valenz
   ZVAL   =   1.00  6.00
  Atomic Wigner-Seitz radii
   RWIGS  =  -1.00 -1.00
  virtual crystal weights 
   VCA    =   1.00  1.00
   NELECT =      48.0000    total number of electrons
   NUPDOWN=      -1.0000    fix difference up-down

 DOS related values:
   EMIN   =  10.00;   EMAX   =-10.00  energy-range for DOS
   EFERMI =   0.00
   ISMEAR =     0;   SIGMA  =   0.10  broadening in eV -4-tet -1-fermi 0-gaus

 Electronic relaxation 2 (details)
   IALGO  =     68    algorithm
   LDIAG  =      T    sub-space diagonalisation (order eigenvalues)
   LSUBROT=      F    optimize rotation matrix (better conditioning)
   TURBO    =      0    0=normal 1=particle mesh
   IRESTART =      0    0=no restart 2=restart with 2 vectors
   NREBOOT  =      0    no. of reboots
   NMIN     =      0    reboot dimension
   EREF     =   0.00    reference energy to select bands
   IMIX   =      4    mixing-type and parameters
     AMIX     =   0.40;   BMIX     =  1.00
     AMIX_MAG =   1.60;   BMIX_MAG =  1.00
     AMIN     =   0.10
     WC   =   100.;   INIMIX=   1;  MIXPRE=   1;  MAXMIX= -45

 Intra band minimization:
   WEIMIN = 0.0000     energy-eigenvalue tresh-hold
   EBREAK =  0.69E-08  absolut break condition
   DEPER  =   0.30     relativ break condition  

   TIME   =   0.40     timestep for ELM

  volume/ion in A,a.u.               =     444.44      2999.26
  Fermi-wavevector in a.u.,A,eV,Ry     =   0.297481  0.562157  1.204043  0.088495
  Thomas-Fermi vector in A             =   1.163009
 
 Write flags
   LWAVE        =      F    write WAVECAR
   LDOWNSAMPLE  =      F    k-point downsampling of WAVECAR
   LCHARG       =      F    write CHGCAR
   LVTOT        =      F    write LOCPOT, total local potential
   LVHAR        =      F    write LOCPOT, Hartree potential only
   LELF         =      F    write electronic localiz. function (ELF)
   LORBIT       =     11    0 simple, 1 ext, 2 COOP (PROOUT), +10 PAW based schemes


 Dipole corrections
   LMONO  =      F    monopole corrections only (constant potential shift)
   LDIPOL =      T    correct potential (dipole corrections)
   IDIPOL =      4    1-x, 2-y, 3-z, 4-all directions 
   EPSILON=  1.0000000 bulk dielectric constant

 Exchange correlation treatment:
   GGA     =    --    GGA type
   LEXCH   =     8    internal setting for exchange type
   VOSKOWN=      0    Vosko Wilk Nusair interpolation
   LHFCALC =     F    Hartree Fock is set to
   LHFONE  =     F    Hartree Fock one center treatment
   AEXX    =    0.0000 exact exchange contribution

 Linear response parameters
   LEPSILON=     F    determine dielectric tensor
   LRPA    =     F    only Hartree local field effects (RPA)
   LNABLA  =     F    use nabla operator in PAW spheres
   LVEL    =     F    velocity operator in full k-point grid
   LINTERFAST=   F  fast interpolation
   KINTER  =     0    interpolate to denser k-point grid
   CSHIFT  =0.1000    complex shift for real part using Kramers Kronig
   OMEGAMAX=  -1.0    maximum frequency
   DEG_THRESHOLD= 0.2000000E-02 threshold for treating states as degnerate
   RTIME   =   -0.100 relaxation time in fs
  (WPLASMAI=    0.000 imaginary part of plasma frequency in eV, 0.658/RTIME)
   DFIELD  = 0.0000000 0.0000000 0.0000000 field for delta impulse in time
 
 Orbital magnetization related:
   ORBITALMAG=     F  switch on orbital magnetization
   LCHIMAG   =     F  perturbation theory with respect to B field
   DQ        =  0.001000  dq finite difference perturbation B field
   LLRAUG    =     F  two centre corrections for induced B field



--------------------------------------------------------------------------------------------------------


 Static calculation
 charge density and potential will be updated during run
 non-spin polarized calculation
 RMM-DIIS sequential band-by-band and
  variant of blocked Davidson during initial phase
 perform sub-space diagonalisation
    before iterative eigenvector-optimisation
 modified Broyden-mixing scheme, WC =      100.0
 initial mixing is a Kerker type mixing with AMIX =  0.4000 and BMIX =      1.0000
 Hartree-type preconditioning will be used
 using additional bands           12
 reciprocal scheme for non local part
 use partial core corrections
 calculate Harris-corrections to forces 
   (improved forces if not selfconsistent)
 use gradient corrections 
 use of overlap-Matrix (Vanderbilt PP)
 Gauss-broadening in eV      SIGMA  =   0.10


--------------------------------------------------------------------------------------------------------


  energy-cutoff  :      400.00
  volume of cell :     8000.00
      direct lattice vectors                 reciprocal lattice vectors
    20.000000000  0.000000000  0.000000000     0.050000000  0.000000000  0.000000000
     0.000000000 20.000000000  0.000000000     0.000000000  0.050000000  0.000000000
     0.000000000  0.000000000 20.000000000     0.000000000  0.000000000  0.050000000

  length of vectors
    20.000000000 20.000000000 20.000000000     0.050000000  0.050000000  0.050000000


 
 k-points in units of 2pi/SCALE and weight: Monkhorst-Pack                          
   0.00000000  0.00000000  0.00000000       1.000
 
 k-points in reciprocal lattice and weights: Monkhorst-Pack                          
   0.00000000  0.00000000  0.00000000       1.000
 
 position of ions in fractional coordinates (direct lattice) 
   0.51696044  0.48231771  0.42450384
   0.58250409  0.51749296  0.44267829
   0.50958844  0.51448731  0.57599144
   0.50881759  0.44253796  0.55194014
   0.61067104  0.48867021  0.54297044
   0.68202664  0.47599011  0.51539879
   0.41832169  0.43807436  0.47809879
   0.44818364  0.37077486  0.45331244
   0.32000000  0.49750456  0.53770659
   0.39097829  0.53815556  0.50631739
   0.49542619  0.56961846  0.47781379
   0.47029514  0.63315261  0.51581875
   0.53931234  0.52526726  0.42129739
   0.53148534  0.47185586  0.58328284
   0.64368714  0.50445581  0.51036774
   0.46046439  0.41406651  0.47018254
   0.36007474  0.50112251  0.49787849
   0.46704339  0.58519926  0.51557024
 
 position of ions in cartesian coordinates  (Angst):
  10.33920878  9.64635415  8.49007673
  11.65008178 10.34985915  8.85356573
  10.19176878 10.28974615 11.51982873
  10.17635178  8.85075915 11.03880273
  12.21342078  9.77340415 10.85940873
  13.64053278  9.51980215 10.30797573
   8.36643378  8.76148715  9.56197573
   8.96367278  7.41549715  9.06624873
   6.40000000  9.95009115 10.75413173
   7.81956578 10.76311115 10.12634773
   9.90852378 11.39236915  9.55627573
   9.40590278 12.66305215 10.31637491
  10.78624678 10.50534515  8.42594773
  10.62970678  9.43711715 11.66565673
  12.87374278 10.08911615 10.20735473
   9.20928778  8.28133015  9.40365073
   7.20149478 10.02245015  9.95756973
   9.34086778 11.70398515 10.31140473
 


--------------------------------------------------------------------------------------------------------


 k-point  1 :   0.0000 0.0000 0.0000  plane waves:  145165

 maximum and minimum number of plane-waves per node :     12106    12090

 maximum number of plane-waves:    145165
 maximum index in each direction: 
   IXMAX=   32   IYMAX=   32   IZMAX=   32
   IXMIN=  -32   IYMIN=  -32   IZMIN=  -32


 parallel 3D FFT for wavefunctions:
    minimum data exchange during FFTs selected (reduces bandwidth)
 parallel 3D FFT for charge:
    minimum data exchange during FFTs selected (reduces bandwidth)


 total amount of memory used by VASP MPI-rank0    52198. kBytes
=======================================================================

   base      :      30000. kBytes
   nonl-proj :       5035. kBytes
   fftplans  :       6155. kBytes
   grid      :       9257. kBytes
   one-center:          6. kBytes
   wavefun   :       1745. kBytes
 
     INWAV:  cpu time    0.0000: real time    0.0000
 Broyden mixing: mesh for mixing (old mesh)
   NGX = 65   NGY = 65   NGZ = 65
  (NGX  =160   NGY  =160   NGZ  =160)
  gives a total of 274625 points

 initial charge density was supplied:
 charge density of overlapping atoms calculated
 number of electron      48.0000000 magnetization 
 keeping initial charge density in first step


--------------------------------------------------------------------------------------------------------


 Maximum index for augmentation-charges           43 (set IRDMAX)


--------------------------------------------------------------------------------------------------------


 First call to EWALD:  gamma=   0.089
 Maximum number of real-space cells 3x 3x 3
 Maximum number of reciprocal cells 3x 3x 3

    FEWALD:  cpu time    0.0022: real time    0.0022


--------------------------------------- Iteration      1(   1)  ---------------------------------------


    POTLOK:  cpu time    0.1139: real time    0.1181
    SETDIJ:  cpu time    0.0019: real time    0.0019
     EDDAV:  cpu time    0.5726: real time    0.5737
       DOS:  cpu time    0.0005: real time    0.0005
    --------------------------------------------
      LOOP:  cpu time    0.6889: real time    0.6943

 eigenvalue-minimisations  :    88
 total energy-change (2. order) : 0.5174021E+03  (-0.8583608E+03)
 number of electron      48.0000000 magnetization 
 augmentation part       48.0000000 magnetization 

 DIPCOR: dipole corrections for dipol
 direction  1 min pos     1, direction  2 min pos     1, direction  3 min pos     1,
 dipolmoment           0.000003      0.000001     -0.000001 electrons x Angstroem
 Tr[quadrupol]        26.408037

 energy correction for charged system         0.000000 eV
 dipol+quadrupol energy correction           -0.000000 eV
 added-field ion interaction          0.000000 eV  (added to PSCEN)


 Free energy of the ion-electron system (eV)
  ---------------------------------------------------
  alpha Z        PSCENC =         1.00913064
  Ewald energy   TEWEN  =      3088.91719270
  -Hartree energ DENC   =     -5244.53645835
  -exchange      EXHF   =         0.00000000
  -V(xc)+E(xc)   XCENC  =       195.01756129
  PAW double counting   =      2104.90519057    -2115.80374798
  entropy T*S    EENTRO =        -0.11486492
  eigenvalues    EBANDS =      -255.31467205
  atomic energy  EATOM  =      2743.32276819
  Solvation  Ediel_sol  =         0.00000000
  ---------------------------------------------------
  free energy    TOTEN  =       517.40210010 eV

  energy without entropy =      517.51696502  energy(sigma->0) =      517.45953256


--------------------------------------------------------------------------------------------------------




--------------------------------------- Iteration      1(   2)  ---------------------------------------


     EDDAV:  cpu time    0.7771: real time    0.7774
       DOS:  cpu time    0.0003: real time    0.0003
    --------------------------------------------
      LOOP:  cpu time    0.7774: real time    0.7777

 eigenvalue-minimisations  :   128
 total energy-change (2. order) :-0.2894787E+03  (-0.2752168E+03)
 number of electron      48.0000000 magnetization 
 augmentation part       48.0000000 magnetization 

 DIPCOR: dipole corrections for dipol
 direction  1 min pos     1, direction  2 min pos     1, direction  3 min pos     1,
 dipolmoment           0.000003      0.000001     -0.000001 electrons x Angstroem
 Tr[quadrupol]        26.408037

 energy correction for charged system         0.000000 eV
 dipol+quadrupol energy correction           -0.000000 eV
 added-field ion interaction          0.000000 eV  (added to PSCEN)


 Free energy of the ion-electron system (eV)
  ---------------------------------------------------
  alpha Z        PSCENC =         1.00913064
  Ewald energy   TEWEN  =      3088.91719270
  -Hartree energ DENC   =     -5244.53645835
  -exchange      EXHF   =         0.00000000
  -V(xc)+E(xc)   XCENC  =       195.01756129
  PAW double counting   =      2104.90519057    -2115.80374798
  entropy T*S    EENTRO =        -0.01425526
  eigenvalues    EBANDS =      -544.89395628
  atomic energy  EATOM  =      2743.32276819
  Solvation  Ediel_sol  =         0.00000000
  ---------------------------------------------------
  free energy    TOTEN  =       227.92342553 eV

  energy without entropy =      227.93768079  energy(sigma->0) =      227.93055316


--------------------------------------------------------------------------------------------------------




--------------------------------------- Iteration      1(   3)  ---------------------------------------


     EDDAV:  cpu time    0.7220: real time    0.7225
       DOS:  cpu time    0.0019: real time    0.0019
    --------------------------------------------
      LOOP:  cpu time    0.7239: real time    0.7244

 eigenvalue-minimisations  :   120
 total energy-change (2. order) :-0.2677931E+03  (-0.2635918E+03)
 number of electron      48.0000000 magnetization 
 augmentation part       48.0000000 magnetization 

 DIPCOR: dipole corrections for dipol
 direction  1 min pos     1, direction  2 min pos     1, direction  3 min pos     1,
 dipolmoment           0.000003      0.000001     -0.000001 electrons x Angstroem
 Tr[quadrupol]        26.408037

 energy correction for charged system         0.000000 eV
 dipol+quadrupol energy correction           -0.000000 eV
 added-field ion interaction          0.000000 eV  (added to PSCEN)


 Free energy of the ion-electron system (eV)
  ---------------------------------------------------
  alpha Z        PSCENC =         1.00913064
  Ewald energy   TEWEN  =      3088.91719270
  -Hartree energ DENC   =     -5244.53645835
  -exchange      EXHF   =         0.00000000
  -V(xc)+E(xc)   XCENC  =       195.01756129
  PAW double counting   =      2104.90519057    -2115.80374798
  entropy T*S    EENTRO =        -0.00000000
  eigenvalues    EBANDS =      -812.70133471
  atomic energy  EATOM  =      2743.32276819
  Solvation  Ediel_sol  =         0.00000000
  ---------------------------------------------------
  free energy    TOTEN  =       -39.86969764 eV

  energy without entropy =      -39.86969764  energy(sigma->0) =      -39.86969764


--------------------------------------------------------------------------------------------------------




--------------------------------------- Iteration      1(   4)  ---------------------------------------


     EDDAV:  cpu time    0.5475: real time    0.5476
       DOS:  cpu time    0.0017: real time    0.0017
    --------------------------------------------
      LOOP:  cpu time    0.5492: real time    0.5493

 eigenvalue-minimisations  :    84
 total energy-change (2. order) :-0.5570738E+02  (-0.5559249E+02)
 number of electron      48.0000000 magnetization 
 augmentation part       48.0000000 magnetization 

 DIPCOR: dipole corrections for dipol
 direction  1 min pos     1, direction  2 min pos     1, direction  3 min pos     1,
 dipolmoment           0.000003      0.000001     -0.000001 electrons x Angstroem
 Tr[quadrupol]        26.408037

 energy correction for charged system         0.000000 eV
 dipol+quadrupol energy correction           -0.000000 eV
 added-field ion interaction          0.000000 eV  (added to PSCEN)


 Free energy of the ion-electron system (eV)
  ---------------------------------------------------
  alpha Z        PSCENC =         1.00913064
  Ewald energy   TEWEN  =      3088.91719270
  -Hartree energ DENC   =     -5244.53645835
  -exchange      EXHF   =         0.00000000
  -V(xc)+E(xc)   XCENC  =       195.01756129
  PAW double counting   =      2104.90519057    -2115.80374798
  entropy T*S    EENTRO =        -0.00000000
  eigenvalues    EBANDS =      -868.40871502
  atomic energy  EATOM  =      2743.32276819
  Solvation  Ediel_sol  =         0.00000000
  ---------------------------------------------------
  free energy    TOTEN  =       -95.57707796 eV

  energy without entropy =      -95.57707796  energy(sigma->0) =      -95.57707796


--------------------------------------------------------------------------------------------------------




--------------------------------------- Iteration      1(   5)  ---------------------------------------


     EDDAV:  cpu time    0.5666: real time    0.5669
       DOS:  cpu time    0.0005: real time    0.0005
    CHARGE:  cpu time    0.0354: real time    0.0354
    MIXING:  cpu time    0.0034: real time    0.0034
    --------------------------------------------
      LOOP:  cpu time    0.6060: real time    0.6063

 eigenvalue-minimisations  :    88
 total energy-change (2. order) :-0.1125669E+01  (-0.1125249E+01)
 number of electron      48.0000301 magnetization 
 augmentation part        4.9143386 magnetization 

 DIPCOR: dipole corrections for dipol
 direction  1 min pos     1, direction  2 min pos     1, direction  3 min pos     1,
 dipolmoment           0.000003      0.000001     -0.000001 electrons x Angstroem
 Tr[quadrupol]        26.408037

 energy correction for charged system         0.000000 eV
 dipol+quadrupol energy correction           -0.000000 eV
 added-field ion interaction          0.000000 eV  (added to PSCEN)


 Broyden mixing:
  rms(total) = 0.18209E+01    rms(broyden)= 0.18173E+01
  rms(prec ) = 0.19804E+01
  weight for this iteration     100.00

 Free energy of the ion-electron system (eV)
  ---------------------------------------------------
  alpha Z        PSCENC =         1.00913064
  Ewald energy   TEWEN  =      3088.91719270
  -Hartree energ DENC   =     -5244.53645835
  -exchange      EXHF   =         0.00000000
  -V(xc)+E(xc)   XCENC  =       195.01756129
  PAW double counting   =      2104.90519057    -2115.80374798
  entropy T*S    EENTRO =        -0.00000000
  eigenvalues    EBANDS =      -869.53438360
  atomic energy  EATOM  =      2743.32276819
  Solvation  Ediel_sol  =         0.00000000
  ---------------------------------------------------
  free energy    TOTEN  =       -96.70274653 eV

  energy without entropy =      -96.70274653  energy(sigma->0) =      -96.70274653


--------------------------------------------------------------------------------------------------------




--------------------------------------- Iteration      1(   6)  ---------------------------------------


    POTLOK:  cpu time    0.0958: real time    0.0959
    SETDIJ:  cpu time    0.0017: real time    0.0017
    EDDIAG:  cpu time    0.0943: real time    0.0944
  RMM-DIIS:  cpu time    0.5943: real time    0.5946
    ORTHCH:  cpu time    0.0113: real time    0.0113
       DOS:  cpu time    0.0010: real time    0.0010
    CHARGE:  cpu time    0.0355: real time    0.0355
    MIXING:  cpu time    0.0037: real time    0.0037
    --------------------------------------------
      LOOP:  cpu time    0.8376: real time    0.8381

 eigenvalue-minimisations  :    96
 total energy-change (2. order) : 0.9150556E+01  (-0.3573330E+01)
 number of electron      48.0000257 magnetization 
 augmentation part        4.2809203 magnetization 

 DIPCOR: dipole corrections for dipol
 direction  1 min pos     1, direction  2 min pos     1, direction  3 min pos     1,
 dipolmoment           0.070263      0.046156     -0.036199 electrons x Angstroem
 Tr[quadrupol]        24.798555

 energy correction for charged system         0.000000 eV
 dipol+quadrupol energy correction           -0.000032 eV
 added-field ion interaction          0.000570 eV  (added to PSCEN)


 Broyden mixing:
  rms(total) = 0.71343E+00    rms(broyden)= 0.71255E+00
  rms(prec ) = 0.75157E+00
  weight for this iteration     100.00

 eigenvalues of (default mixing * dielectric matrix)
  average eigenvalue GAMMA=   1.0186
  1.0186

 Free energy of the ion-electron system (eV)
  ---------------------------------------------------
  alpha Z        PSCENC =         1.00966911
  Ewald energy   TEWEN  =      3088.91719270
  -Hartree energ DENC   =     -5373.92508917
  -exchange      EXHF   =         0.00000000
  -V(xc)+E(xc)   XCENC  =       202.19702267
  PAW double counting   =      2681.74961374    -2694.58529735
  entropy T*S    EENTRO =        -0.00000000
  eigenvalues    EBANDS =      -736.23807048
  atomic energy  EATOM  =      2743.32276819
  Solvation  Ediel_sol  =         0.00000000
  ---------------------------------------------------
  free energy    TOTEN  =       -87.55219058 eV

  energy without entropy =      -87.55219058  energy(sigma->0) =      -87.55219058


--------------------------------------------------------------------------------------------------------




--------------------------------------- Iteration      1(   7)  ---------------------------------------


    POTLOK:  cpu time    0.0949: real time    0.0950
    SETDIJ:  cpu time    0.0016: real time    0.0016
    EDDIAG:  cpu time    0.0937: real time    0.0937
  RMM-DIIS:  cpu time    0.6111: real time    0.6113
    ORTHCH:  cpu time    0.0111: real time    0.0111
       DOS:  cpu time    0.0012: real time    0.0012
    CHARGE:  cpu time    0.0353: real time    0.0353
    MIXING:  cpu time    0.0043: real time    0.0043
    --------------------------------------------
      LOOP:  cpu time    0.8533: real time    0.8536

 eigenvalue-minimisations  :    96
 total energy-change (2. order) : 0.3762266E+00  (-0.1905733E+00)
 number of electron      48.0000251 magnetization 
 augmentation part        4.1802975 magnetization 

 DIPCOR: dipole corrections for dipol
 direction  1 min pos     1, direction  2 min pos     1, direction  3 min pos     1,
 dipolmoment           0.119319      0.074521     -0.053445 electrons x Angstroem
 Tr[quadrupol]        23.782374

 energy correction for charged system         0.000000 eV
 dipol+quadrupol energy correction           -0.000085 eV
 added-field ion interaction          0.000940 eV  (added to PSCEN)


 Broyden mixing:
  rms(total) = 0.46026E+00    rms(broyden)= 0.46013E+00
  rms(prec ) = 0.48238E+00
  weight for this iteration     100.00

 eigenvalues of (default mixing * dielectric matrix)
  average eigenvalue GAMMA=   1.7302
  1.1923  2.2680

 Free energy of the ion-electron system (eV)
  ---------------------------------------------------
  alpha Z        PSCENC =         1.00998505
  Ewald energy   TEWEN  =      3088.91719270
  -Hartree energ DENC   =     -5404.93219799
  -exchange      EXHF   =         0.00000000
  -V(xc)+E(xc)   XCENC  =       203.69404218
  PAW double counting   =      2997.24037642    -3010.11131338
  entropy T*S    EENTRO =        -0.00000000
  eigenvalues    EBANDS =      -706.31681714
  atomic energy  EATOM  =      2743.32276819
  Solvation  Ediel_sol  =         0.00000000
  ---------------------------------------------------
  free energy    TOTEN  =       -87.17596396 eV

  energy without entropy =      -87.17596396  energy(sigma->0) =      -87.17596396


--------------------------------------------------------------------------------------------------------




--------------------------------------- Iteration      1(   8)  ---------------------------------------


    POTLOK:  cpu time    0.0974: real time    0.0976
    SETDIJ:  cpu time    0.0016: real time    0.0016
    EDDIAG:  cpu time    0.0937: real time    0.0937
  RMM-DIIS:  cpu time    0.5966: real time    0.5967
    ORTHCH:  cpu time    0.0110: real time    0.0110
       DOS:  cpu time    0.0014: real time    0.0014
    CHARGE:  cpu time    0.0356: real time    0.0357
    MIXING:  cpu time    0.0043: real time    0.0043
    --------------------------------------------
      LOOP:  cpu time    0.8416: real time    0.8420

 eigenvalue-minimisations  :    96
 total energy-change (2. order) : 0.2498670E+00  (-0.5081929E-01)
 number of electron      48.0000252 magnetization 
 augmentation part        4.2077081 magnetization 

 DIPCOR: dipole corrections for dipol
 direction  1 min pos     1, direction  2 min pos     1, direction  3 min pos     1,
 dipolmoment           0.207603      0.122680     -0.081105 electrons x Angstroem
 Tr[quadrupol]        22.001807

 energy correction for charged system         0.000000 eV
 dipol+quadrupol energy correction           -0.000244 eV
 added-field ion interaction          0.001590 eV  (added to PSCEN)


 Broyden mixing:
  rms(total) = 0.73038E-01    rms(broyden)= 0.72993E-01
  rms(prec ) = 0.93066E-01
  weight for this iteration     100.00

 eigenvalues of (default mixing * dielectric matrix)
  average eigenvalue GAMMA=   1.5924
  2.4687  1.1543  1.1543

 Free energy of the ion-electron system (eV)
  ---------------------------------------------------
  alpha Z        PSCENC =         1.01047621
  Ewald energy   TEWEN  =      3088.91719270
  -Hartree energ DENC   =     -5427.72552857
  -exchange      EXHF   =         0.00000000
  -V(xc)+E(xc)   XCENC  =       204.57175495
  PAW double counting   =      3379.64214039    -3392.17660436
  entropy T*S    EENTRO =        -0.00000000
  eigenvalues    EBANDS =      -684.48829653
  atomic energy  EATOM  =      2743.32276819
  Solvation  Ediel_sol  =         0.00000000
  ---------------------------------------------------
  free energy    TOTEN  =       -86.92609700 eV

  energy without entropy =      -86.92609700  energy(sigma->0) =      -86.92609700


--------------------------------------------------------------------------------------------------------




--------------------------------------- Iteration      1(   9)  ---------------------------------------


    POTLOK:  cpu time    0.0956: real time    0.0957
    SETDIJ:  cpu time    0.0015: real time    0.0015
    EDDIAG:  cpu time    0.0941: real time    0.0941
  RMM-DIIS:  cpu time    0.5943: real time    0.5943
    ORTHCH:  cpu time    0.0108: real time    0.0108
       DOS:  cpu time    0.0014: real time    0.0014
    CHARGE:  cpu time    0.0355: real time    0.0355
    MIXING:  cpu time    0.0046: real time    0.0046
    --------------------------------------------
      LOOP:  cpu time    0.8377: real time    0.8379

 eigenvalue-minimisations  :    96
 total energy-change (2. order) : 0.3309598E-01  (-0.1735149E-01)
 number of electron      48.0000250 magnetization 
 augmentation part        4.1717549 magnetization 

 DIPCOR: dipole corrections for dipol
 direction  1 min pos     1, direction  2 min pos     1, direction  3 min pos     1,
 dipolmoment           0.242141      0.141621     -0.092249 electrons x Angstroem
 Tr[quadrupol]        21.265225

 energy correction for charged system         0.000000 eV
 dipol+quadrupol energy correction           -0.000329 eV
 added-field ion interaction          0.001845 eV  (added to PSCEN)


 Broyden mixing:
  rms(total) = 0.36536E-01    rms(broyden)= 0.36448E-01
  rms(prec ) = 0.51203E-01
  weight for this iteration     100.00

 eigenvalues of (default mixing * dielectric matrix)
  average eigenvalue GAMMA=   1.6698
  1.0467  1.0467  2.2929  2.2929

 Free energy of the ion-electron system (eV)
  ---------------------------------------------------
  alpha Z        PSCENC =         1.01064669
  Ewald energy   TEWEN  =      3088.91719270
  -Hartree energ DENC   =     -5440.67232915
  -exchange      EXHF   =         0.00000000
  -V(xc)+E(xc)   XCENC  =       205.11894528
  PAW double counting   =      3412.43311904    -3425.06396372
  entropy T*S    EENTRO =        -0.00000000
  eigenvalues    EBANDS =      -671.95938006
  atomic energy  EATOM  =      2743.32276819
  Solvation  Ediel_sol  =         0.00000000
  ---------------------------------------------------
  free energy    TOTEN  =       -86.89300103 eV

  energy without entropy =      -86.89300103  energy(sigma->0) =      -86.89300103


--------------------------------------------------------------------------------------------------------




--------------------------------------- Iteration      1(  10)  ---------------------------------------


    POTLOK:  cpu time    0.0966: real time    0.0967
    SETDIJ:  cpu time    0.0015: real time    0.0015
    EDDIAG:  cpu time    0.0933: real time    0.0937
  RMM-DIIS:  cpu time    0.5561: real time    0.5561
    ORTHCH:  cpu time    0.0104: real time    0.0104
       DOS:  cpu time    0.0018: real time    0.0018
    CHARGE:  cpu time    0.0353: real time    0.0353
    MIXING:  cpu time    0.0048: real time    0.0048
    --------------------------------------------
      LOOP:  cpu time    0.7997: real time    0.8003

 eigenvalue-minimisations  :    92
 total energy-change (2. order) : 0.3638626E-02  (-0.1750900E-02)
 number of electron      48.0000250 magnetization 
 augmentation part        4.1703126 magnetization 

 DIPCOR: dipole corrections for dipol
 direction  1 min pos     1, direction  2 min pos     1, direction  3 min pos     1,
 dipolmoment           0.293046      0.168694     -0.105924 electrons x Angstroem
 Tr[quadrupol]        20.148850

 energy correction for charged system         0.000000 eV
 dipol+quadrupol energy correction           -0.000473 eV
 added-field ion interaction          0.002213 eV  (added to PSCEN)


 Broyden mixing:
  rms(total) = 0.18401E-01    rms(broyden)= 0.18391E-01
  rms(prec ) = 0.28124E-01
  weight for this iteration     100.00

 eigenvalues of (default mixing * dielectric matrix)
  average eigenvalue GAMMA=   1.7390
  3.0131  2.4380  1.0846  1.0846  1.0747

 Free energy of the ion-electron system (eV)
  ---------------------------------------------------
  alpha Z        PSCENC =         1.01086994
  Ewald energy   TEWEN  =      3088.91719270
  -Hartree energ DENC   =     -5446.44789162
  -exchange      EXHF   =         0.00000000
  -V(xc)+E(xc)   XCENC  =       205.10418510
  PAW double counting   =      3370.62257021    -3383.21993268
  entropy T*S    EENTRO =        -0.00000000
  eigenvalues    EBANDS =      -666.19912423
  atomic energy  EATOM  =      2743.32276819
  Solvation  Ediel_sol  =         0.00000000
  ---------------------------------------------------
  free energy    TOTEN  =       -86.88936240 eV

  energy without entropy =      -86.88936240  energy(sigma->0) =      -86.88936240


--------------------------------------------------------------------------------------------------------




--------------------------------------- Iteration      1(  11)  ---------------------------------------


    POTLOK:  cpu time    0.0962: real time    0.0963
    SETDIJ:  cpu time    0.0015: real time    0.0015
    EDDIAG:  cpu time    0.0938: real time    0.0938
  RMM-DIIS:  cpu time    0.5633: real time    0.5635
    ORTHCH:  cpu time    0.0106: real time    0.0106
       DOS:  cpu time    0.0014: real time    0.0014
    CHARGE:  cpu time    0.0356: real time    0.0356
    MIXING:  cpu time    0.0057: real time    0.0057
    --------------------------------------------
      LOOP:  cpu time    0.8081: real time    0.8084

 eigenvalue-minimisations  :    92
 total energy-change (2. order) :-0.1099853E-02  (-0.7756062E-03)
 number of electron      48.0000250 magnetization 
 augmentation part        4.1726987 magnetization 

 DIPCOR: dipole corrections for dipol
 direction  1 min pos     1, direction  2 min pos     1, direction  3 min pos     1,
 dipolmoment           0.323158      0.184755     -0.114175 electrons x Angstroem
 Tr[quadrupol]        19.429476

 energy correction for charged system         0.000000 eV
 dipol+quadrupol energy correction           -0.000572 eV
 added-field ion interaction          0.002431 eV  (added to PSCEN)


 Broyden mixing:
  rms(total) = 0.95795E-02    rms(broyden)= 0.95691E-02
  rms(prec ) = 0.16881E-01
  weight for this iteration     100.00

 eigenvalues of (default mixing * dielectric matrix)
  average eigenvalue GAMMA=   1.9953
  4.2378  2.4408  2.1036  0.9863  1.1017  1.1017

 Free energy of the ion-electron system (eV)
  ---------------------------------------------------
  alpha Z        PSCENC =         1.01098981
  Ewald energy   TEWEN  =      3088.91719270
  -Hartree energ DENC   =     -5450.31607497
  -exchange      EXHF   =         0.00000000
  -V(xc)+E(xc)   XCENC  =       205.13408860
  PAW double counting   =      3372.98065560    -3385.55368151
  entropy T*S    EENTRO =        -0.00000000
  eigenvalues    EBANDS =      -662.38640067
  atomic energy  EATOM  =      2743.32276819
  Solvation  Ediel_sol  =         0.00000000
  ---------------------------------------------------
  free energy    TOTEN  =       -86.89046225 eV

  energy without entropy =      -86.89046225  energy(sigma->0) =      -86.89046225


--------------------------------------------------------------------------------------------------------




--------------------------------------- Iteration      1(  12)  ---------------------------------------


    POTLOK:  cpu time    0.0994: real time    0.0996
    SETDIJ:  cpu time    0.0018: real time    0.0018
    EDDIAG:  cpu time    0.0937: real time    0.0937
  RMM-DIIS:  cpu time    0.5300: real time    0.5303
    ORTHCH:  cpu time    0.0104: real time    0.0104
       DOS:  cpu time    0.0016: real time    0.0016
    CHARGE:  cpu time    0.0356: real time    0.0356
    MIXING:  cpu time    0.0053: real time    0.0053
    --------------------------------------------
      LOOP:  cpu time    0.7779: real time    0.7783

 eigenvalue-minimisations  :    90
 total energy-change (2. order) :-0.1405226E-01  (-0.1025600E-02)
 number of electron      48.0000250 magnetization 
 augmentation part        4.1674616 magnetization 

 DIPCOR: dipole corrections for dipol
 direction  1 min pos     1, direction  2 min pos     1, direction  3 min pos     1,
 dipolmoment           0.358665      0.204014     -0.124132 electrons x Angstroem
 Tr[quadrupol]        18.399639

 energy correction for charged system         0.000000 eV
 dipol+quadrupol energy correction           -0.000700 eV
 added-field ion interaction          0.002689 eV  (added to PSCEN)


 Broyden mixing:
  rms(total) = 0.82608E-02    rms(broyden)= 0.82486E-02
  rms(prec ) = 0.10655E-01
  weight for this iteration     100.00

 eigenvalues of (default mixing * dielectric matrix)
  average eigenvalue GAMMA=   2.0304
  4.6044  2.7570  2.4302  1.2748  0.9997  1.0732  1.0732

 Free energy of the ion-electron system (eV)
  ---------------------------------------------------
  alpha Z        PSCENC =         1.01111993
  Ewald energy   TEWEN  =      3088.91719270
  -Hartree energ DENC   =     -5455.58618450
  -exchange      EXHF   =         0.00000000
  -V(xc)+E(xc)   XCENC  =       205.19487897
  PAW double counting   =      3374.94004960    -3387.52277605
  entropy T*S    EENTRO =        -0.00000000
  eigenvalues    EBANDS =      -657.18156334
  atomic energy  EATOM  =      2743.32276819
  Solvation  Ediel_sol  =         0.00000000
  ---------------------------------------------------
  free energy    TOTEN  =       -86.90451451 eV

  energy without entropy =      -86.90451451  energy(sigma->0) =      -86.90451451


--------------------------------------------------------------------------------------------------------




--------------------------------------- Iteration      1(  13)  ---------------------------------------


    POTLOK:  cpu time    0.0970: real time    0.0971
    SETDIJ:  cpu time    0.0015: real time    0.0015
    EDDIAG:  cpu time    0.0937: real time    0.0937
  RMM-DIIS:  cpu time    0.5557: real time    0.5557
    ORTHCH:  cpu time    0.0110: real time    0.0110
       DOS:  cpu time    0.0012: real time    0.0012
    CHARGE:  cpu time    0.0360: real time    0.0362
    MIXING:  cpu time    0.0053: real time    0.0053
    --------------------------------------------
      LOOP:  cpu time    0.8014: real time    0.8018

 eigenvalue-minimisations  :    90
 total energy-change (2. order) :-0.7104557E-02  (-0.2649048E-03)
 number of electron      48.0000250 magnetization 
 augmentation part        4.1703833 magnetization 

 DIPCOR: dipole corrections for dipol
 direction  1 min pos     1, direction  2 min pos     1, direction  3 min pos     1,
 dipolmoment           0.367312      0.208700     -0.126194 electrons x Angstroem
 Tr[quadrupol]        18.036802

 energy correction for charged system         0.000000 eV
 dipol+quadrupol energy correction           -0.000733 eV
 added-field ion interaction          0.002751 eV  (added to PSCEN)


 Broyden mixing:
  rms(total) = 0.34937E-02    rms(broyden)= 0.34881E-02
  rms(prec ) = 0.52587E-02
  weight for this iteration     100.00

 eigenvalues of (default mixing * dielectric matrix)
  average eigenvalue GAMMA=   2.1182
  5.5958  3.0387  2.4062  1.8325  1.0936  1.0936  1.0130  0.8719

 Free energy of the ion-electron system (eV)
  ---------------------------------------------------
  alpha Z        PSCENC =         1.01114921
  Ewald energy   TEWEN  =      3088.91719270
  -Hartree energ DENC   =     -5455.82010889
  -exchange      EXHF   =         0.00000000
  -V(xc)+E(xc)   XCENC  =       205.14661208
  PAW double counting   =      3375.49593535    -3388.06511804
  entropy T*S    EENTRO =        -0.00000000
  eigenvalues    EBANDS =      -656.92004966
  atomic energy  EATOM  =      2743.32276819
  Solvation  Ediel_sol  =         0.00000000
  ---------------------------------------------------
  free energy    TOTEN  =       -86.91161907 eV

  energy without entropy =      -86.91161907  energy(sigma->0) =      -86.91161907


--------------------------------------------------------------------------------------------------------




--------------------------------------- Iteration      1(  14)  ---------------------------------------


    POTLOK:  cpu time    0.0974: real time    0.0975
    SETDIJ:  cpu time    0.0015: real time    0.0015
    EDDIAG:  cpu time    0.0936: real time    0.0936
  RMM-DIIS:  cpu time    0.5394: real time    0.5401
    ORTHCH:  cpu time    0.0107: real time    0.0107
       DOS:  cpu time    0.0013: real time    0.0013
    CHARGE:  cpu time    0.0354: real time    0.0354
    MIXING:  cpu time    0.0058: real time    0.0058
    --------------------------------------------
      LOOP:  cpu time    0.7851: real time    0.7860

 eigenvalue-minimisations  :    89
 total energy-change (2. order) :-0.5137697E-02  (-0.7605171E-04)
 number of electron      48.0000250 magnetization 
 augmentation part        4.1710840 magnetization 

 DIPCOR: dipole corrections for dipol
 direction  1 min pos     1, direction  2 min pos     1, direction  3 min pos     1,
 dipolmoment           0.372335      0.211427     -0.127381 electrons x Angstroem
 Tr[quadrupol]        17.769977

 energy correction for charged system         0.000000 eV
 dipol+quadrupol energy correction           -0.000752 eV
 added-field ion interaction          0.002788 eV  (added to PSCEN)


 Broyden mixing:
  rms(total) = 0.44225E-02    rms(broyden)= 0.44217E-02
  rms(prec ) = 0.52275E-02
  weight for this iteration     100.00

 eigenvalues of (default mixing * dielectric matrix)
  average eigenvalue GAMMA=   2.1839
  6.2004  3.4371  2.4930  2.1868  1.2307  1.0617  1.0617  0.9920  0.9920

 Free energy of the ion-electron system (eV)
  ---------------------------------------------------
  alpha Z        PSCENC =         1.01116586
  Ewald energy   TEWEN  =      3088.91719270
  -Hartree energ DENC   =     -5456.22045978
  -exchange      EXHF   =         0.00000000
  -V(xc)+E(xc)   XCENC  =       205.13626110
  PAW double counting   =      3375.48036796    -3388.04733930
  entropy T*S    EENTRO =        -0.00000000
  eigenvalues    EBANDS =      -656.51671349
  atomic energy  EATOM  =      2743.32276819
  Solvation  Ediel_sol  =         0.00000000
  ---------------------------------------------------
  free energy    TOTEN  =       -86.91675676 eV

  energy without entropy =      -86.91675676  energy(sigma->0) =      -86.91675676


--------------------------------------------------------------------------------------------------------




--------------------------------------- Iteration      1(  15)  ---------------------------------------


    POTLOK:  cpu time    0.0974: real time    0.0976
    SETDIJ:  cpu time    0.0015: real time    0.0015
    EDDIAG:  cpu time    0.0953: real time    0.0955
  RMM-DIIS:  cpu time    0.5120: real time    0.5120
    ORTHCH:  cpu time    0.0105: real time    0.0105
       DOS:  cpu time    0.0015: real time    0.0015
    CHARGE:  cpu time    0.0353: real time    0.0353
    MIXING:  cpu time    0.0061: real time    0.0061
    --------------------------------------------
      LOOP:  cpu time    0.7597: real time    0.7601

 eigenvalue-minimisations  :    89
 total energy-change (2. order) :-0.2882586E-02  (-0.9160746E-04)
 number of electron      48.0000250 magnetization 
 augmentation part        4.1688930 magnetization 

 DIPCOR: dipole corrections for dipol
 direction  1 min pos     1, direction  2 min pos     1, direction  3 min pos     1,
 dipolmoment           0.375494      0.213126     -0.128264 electrons x Angstroem
 Tr[quadrupol]        17.589882

 energy correction for charged system         0.000000 eV
 dipol+quadrupol energy correction           -0.000765 eV
 added-field ion interaction          0.002811 eV  (added to PSCEN)


 Broyden mixing:
  rms(total) = 0.19236E-02    rms(broyden)= 0.19194E-02
  rms(prec ) = 0.24430E-02
  weight for this iteration     100.00

 eigenvalues of (default mixing * dielectric matrix)
  average eigenvalue GAMMA=   2.3310
  7.1547  4.0231  2.5116  2.1537  2.1537  1.0550  1.0550  1.1946  0.9456  1.0624

 Free energy of the ion-electron system (eV)
  ---------------------------------------------------
  alpha Z        PSCENC =         1.01117634
  Ewald energy   TEWEN  =      3088.91719270
  -Hartree energ DENC   =     -5456.85540297
  -exchange      EXHF   =         0.00000000
  -V(xc)+E(xc)   XCENC  =       205.15612782
  PAW double counting   =      3376.14367753    -3388.71726100
  entropy T*S    EENTRO =        -0.00000000
  eigenvalues    EBANDS =      -655.89791796
  atomic energy  EATOM  =      2743.32276819
  Solvation  Ediel_sol  =         0.00000000
  ---------------------------------------------------
  free energy    TOTEN  =       -86.91963935 eV

  energy without entropy =      -86.91963935  energy(sigma->0) =      -86.91963935


--------------------------------------------------------------------------------------------------------




--------------------------------------- Iteration      1(  16)  ---------------------------------------


    POTLOK:  cpu time    0.0980: real time    0.0982
    SETDIJ:  cpu time    0.0015: real time    0.0015
    EDDIAG:  cpu time    0.0940: real time    0.0940
  RMM-DIIS:  cpu time    0.5330: real time    0.5333
    ORTHCH:  cpu time    0.0103: real time    0.0103
       DOS:  cpu time    0.0019: real time    0.0019
    CHARGE:  cpu time    0.0357: real time    0.0357
    MIXING:  cpu time    0.0063: real time    0.0063
    --------------------------------------------
      LOOP:  cpu time    0.7807: real time    0.7812

 eigenvalue-minimisations  :    87
 total energy-change (2. order) :-0.1689531E-02  (-0.2991137E-04)
 number of electron      48.0000250 magnetization 
 augmentation part        4.1695517 magnetization 

 DIPCOR: dipole corrections for dipol
 direction  1 min pos     1, direction  2 min pos     1, direction  3 min pos     1,
 dipolmoment           0.377829      0.214290     -0.128898 electrons x Angstroem
 Tr[quadrupol]        17.459974

 energy correction for charged system         0.000000 eV
 dipol+quadrupol energy correction           -0.000774 eV
 added-field ion interaction          0.002827 eV  (added to PSCEN)


 Broyden mixing:
  rms(total) = 0.84821E-03    rms(broyden)= 0.84773E-03
  rms(prec ) = 0.11069E-02
  weight for this iteration     100.00

 eigenvalues of (default mixing * dielectric matrix)
  average eigenvalue GAMMA=   2.3469
  7.5150  4.5753  2.8741  2.4877  1.9989  0.9365  1.0197  1.1388  1.1388  1.0656
  1.0656

 Free energy of the ion-electron system (eV)
  ---------------------------------------------------
  alpha Z        PSCENC =         1.01118388
  Ewald energy   TEWEN  =      3088.91719270
  -Hartree energ DENC   =     -5456.71196832
  -exchange      EXHF   =         0.00000000
  -V(xc)+E(xc)   XCENC  =       205.14143280
  PAW double counting   =      3375.34814386    -3387.91849086
  entropy T*S    EENTRO =        -0.00000000
  eigenvalues    EBANDS =      -656.03159113
  atomic energy  EATOM  =      2743.32276819
  Solvation  Ediel_sol  =         0.00000000
  ---------------------------------------------------
  free energy    TOTEN  =       -86.92132888 eV

  energy without entropy =      -86.92132888  energy(sigma->0) =      -86.92132888


--------------------------------------------------------------------------------------------------------




--------------------------------------- Iteration      1(  17)  ---------------------------------------


    POTLOK:  cpu time    0.0992: real time    0.0994
    SETDIJ:  cpu time    0.0015: real time    0.0015
    EDDIAG:  cpu time    0.0945: real time    0.0945
  RMM-DIIS:  cpu time    0.5632: real time    0.5635
    ORTHCH:  cpu time    0.0104: real time    0.0104
       DOS:  cpu time    0.0018: real time    0.0018
    CHARGE:  cpu time    0.0354: real time    0.0354
    MIXING:  cpu time    0.0066: real time    0.0066
    --------------------------------------------
      LOOP:  cpu time    0.8127: real time    0.8131

 eigenvalue-minimisations  :    94
 total energy-change (2. order) :-0.4484989E-03  (-0.8298640E-05)
 number of electron      48.0000250 magnetization 
 augmentation part        4.1690192 magnetization 

 DIPCOR: dipole corrections for dipol
 direction  1 min pos     1, direction  2 min pos     1, direction  3 min pos     1,
 dipolmoment           0.379428      0.215142     -0.129383 electrons x Angstroem
 Tr[quadrupol]        17.407252

 energy correction for charged system         0.000000 eV
 dipol+quadrupol energy correction           -0.000780 eV
 added-field ion interaction          0.002839 eV  (added to PSCEN)


 Broyden mixing:
  rms(total) = 0.10260E-02    rms(broyden)= 0.10255E-02
  rms(prec ) = 0.11734E-02
  weight for this iteration     100.00

 eigenvalues of (default mixing * dielectric matrix)
  average eigenvalue GAMMA=   2.3302
  7.7027  5.0215  2.9481  2.4279  2.0038  1.4216  1.4216  1.0636  1.0636  0.9312
  0.9785  0.9785

 Free energy of the ion-electron system (eV)
  ---------------------------------------------------
  alpha Z        PSCENC =         1.01118914
  Ewald energy   TEWEN  =      3088.91719270
  -Hartree energ DENC   =     -5456.86945868
  -exchange      EXHF   =         0.00000000
  -V(xc)+E(xc)   XCENC  =       205.14720932
  PAW double counting   =      3375.08682068    -3387.65907328
  entropy T*S    EENTRO =        -0.00000000
  eigenvalues    EBANDS =      -655.87842546
  atomic energy  EATOM  =      2743.32276819
  Solvation  Ediel_sol  =         0.00000000
  ---------------------------------------------------
  free energy    TOTEN  =       -86.92177738 eV

  energy without entropy =      -86.92177738  energy(sigma->0) =      -86.92177738


--------------------------------------------------------------------------------------------------------




--------------------------------------- Iteration      1(  18)  ---------------------------------------


    POTLOK:  cpu time    0.0936: real time    0.0988
    SETDIJ:  cpu time    0.0015: real time    0.0015
    EDDIAG:  cpu time    0.0967: real time    0.0994
  RMM-DIIS:  cpu time    0.5353: real time    0.5354
    ORTHCH:  cpu time    0.0109: real time    0.0109
       DOS:  cpu time    0.0013: real time    0.0013
    CHARGE:  cpu time    0.0357: real time    0.0357
    MIXING:  cpu time    0.0071: real time    0.0071
    --------------------------------------------
      LOOP:  cpu time    0.7821: real time    0.7901

 eigenvalue-minimisations  :    92
 total energy-change (2. order) :-0.2832492E-03  (-0.1976403E-05)
 number of electron      48.0000250 magnetization 
 augmentation part        4.1692637 magnetization 

 DIPCOR: dipole corrections for dipol
 direction  1 min pos     1, direction  2 min pos     1, direction  3 min pos     1,
 dipolmoment           0.380919      0.215974     -0.129833 electrons x Angstroem
 Tr[quadrupol]        17.374768

 energy correction for charged system         0.000000 eV
 dipol+quadrupol energy correction           -0.000786 eV
 added-field ion interaction          0.002850 eV  (added to PSCEN)


 Broyden mixing:
  rms(total) = 0.32779E-03    rms(broyden)= 0.32753E-03
  rms(prec ) = 0.43042E-03
  weight for this iteration     100.00

 eigenvalues of (default mixing * dielectric matrix)
  average eigenvalue GAMMA=   2.3687
  8.0172  5.3757  3.1276  2.4579  2.4579  1.8298  1.1950  0.9711  0.9711  1.0597
  1.0597  1.1350  1.1350

 Free energy of the ion-electron system (eV)
  ---------------------------------------------------
  alpha Z        PSCENC =         1.01119407
  Ewald energy   TEWEN  =      3088.91719270
  -Hartree energ DENC   =     -5456.82102578
  -exchange      EXHF   =         0.00000000
  -V(xc)+E(xc)   XCENC  =       205.14341864
  PAW double counting   =      3375.17975688    -3387.75099454
  entropy T*S    EENTRO =        -0.00000000
  eigenvalues    EBANDS =      -655.92437079
  atomic energy  EATOM  =      2743.32276819
  Solvation  Ediel_sol  =         0.00000000
  ---------------------------------------------------
  free energy    TOTEN  =       -86.92206063 eV

  energy without entropy =      -86.92206063  energy(sigma->0) =      -86.92206063


--------------------------------------------------------------------------------------------------------




--------------------------------------- Iteration      1(  19)  ---------------------------------------


    POTLOK:  cpu time    0.0985: real time    0.0988
    SETDIJ:  cpu time    0.0015: real time    0.0015
    EDDIAG:  cpu time    0.0944: real time    0.0944
  RMM-DIIS:  cpu time    0.5547: real time    0.5547
    ORTHCH:  cpu time    0.0122: real time    0.0122
       DOS:  cpu time    0.0010: real time    0.0010
    CHARGE:  cpu time    0.0350: real time    0.0351
    MIXING:  cpu time    0.0084: real time    0.0084
    --------------------------------------------
      LOOP:  cpu time    0.8058: real time    0.8061

 eigenvalue-minimisations  :    89
 total energy-change (2. order) :-0.1609425E-03  (-0.1046897E-05)
 number of electron      48.0000250 magnetization 
 augmentation part        4.1694851 magnetization 

 DIPCOR: dipole corrections for dipol
 direction  1 min pos     1, direction  2 min pos     1, direction  3 min pos     1,
 dipolmoment           0.382295      0.216783     -0.130274 electrons x Angstroem
 Tr[quadrupol]        17.351761

 energy correction for charged system         0.000000 eV
 dipol+quadrupol energy correction           -0.000792 eV
 added-field ion interaction          0.002860 eV  (added to PSCEN)


 Broyden mixing:
  rms(total) = 0.39360E-03    rms(broyden)= 0.39326E-03
  rms(prec ) = 0.44192E-03
  weight for this iteration     100.00

 eigenvalues of (default mixing * dielectric matrix)
  average eigenvalue GAMMA=   2.3759
  8.3670  5.8417  3.4245  2.7392  2.4645  1.9442  1.1767  1.1767  1.0146  0.9358
  1.0445  1.0445  1.0442  1.0442

 Free energy of the ion-electron system (eV)
  ---------------------------------------------------
  alpha Z        PSCENC =         1.01119868
  Ewald energy   TEWEN  =      3088.91719270
  -Hartree energ DENC   =     -5456.79905221
  -exchange      EXHF   =         0.00000000
  -V(xc)+E(xc)   XCENC  =       205.14098787
  PAW double counting   =      3375.15735958    -3387.72806185
  entropy T*S    EENTRO =        -0.00000000
  eigenvalues    EBANDS =      -655.94461452
  atomic energy  EATOM  =      2743.32276819
  Solvation  Ediel_sol  =         0.00000000
  ---------------------------------------------------
  free energy    TOTEN  =       -86.92222157 eV

  energy without entropy =      -86.92222157  energy(sigma->0) =      -86.92222157


--------------------------------------------------------------------------------------------------------




--------------------------------------- Iteration      1(  20)  ---------------------------------------


    POTLOK:  cpu time    0.1010: real time    0.1011
    SETDIJ:  cpu time    0.0015: real time    0.0015
    EDDIAG:  cpu time    0.0930: real time    0.0931
  RMM-DIIS:  cpu time    0.4438: real time    0.4440
    ORTHCH:  cpu time    0.0108: real time    0.0108
       DOS:  cpu time    0.0013: real time    0.0013
    CHARGE:  cpu time    0.0354: real time    0.0354
    MIXING:  cpu time    0.0078: real time    0.0078
    --------------------------------------------
      LOOP:  cpu time    0.6947: real time    0.6949

 eigenvalue-minimisations  :    71
 total energy-change (2. order) :-0.5665488E-04  (-0.1221070E-06)
 number of electron      48.0000250 magnetization 
 augmentation part        4.1694597 magnetization 

 DIPCOR: dipole corrections for dipol
 direction  1 min pos     1, direction  2 min pos     1, direction  3 min pos     1,
 dipolmoment           0.383029      0.217254     -0.130529 electrons x Angstroem
 Tr[quadrupol]        17.341617

 energy correction for charged system         0.000000 eV
 dipol+quadrupol energy correction           -0.000795 eV
 added-field ion interaction          0.002866 eV  (added to PSCEN)


 Broyden mixing:
  rms(total) = 0.24537E-03    rms(broyden)= 0.24537E-03
  rms(prec ) = 0.27777E-03
  weight for this iteration     100.00

 eigenvalues of (default mixing * dielectric matrix)
  average eigenvalue GAMMA=   2.4823
  8.8612  6.2621  4.1979  2.7950  2.4473  2.4473  1.6767  1.3273  1.0792  1.0792
  1.0772  1.0772  0.9614  0.9730  0.9730

 Free energy of the ion-electron system (eV)
  ---------------------------------------------------
  alpha Z        PSCENC =         1.01120120
  Ewald energy   TEWEN  =      3088.91719270
  -Hartree energ DENC   =     -5456.81364750
  -exchange      EXHF   =         0.00000000
  -V(xc)+E(xc)   XCENC  =       205.14151853
  PAW double counting   =      3375.20010289    -3387.77106259
  entropy T*S    EENTRO =        -0.00000000
  eigenvalues    EBANDS =      -655.93035164
  atomic energy  EATOM  =      2743.32276819
  Solvation  Ediel_sol  =         0.00000000
  ---------------------------------------------------
  free energy    TOTEN  =       -86.92227822 eV

  energy without entropy =      -86.92227822  energy(sigma->0) =      -86.92227822


--------------------------------------------------------------------------------------------------------




--------------------------------------- Iteration      1(  21)  ---------------------------------------


    POTLOK:  cpu time    0.1007: real time    0.1008
    SETDIJ:  cpu time    0.0016: real time    0.0016
    EDDIAG:  cpu time    0.0940: real time    0.0940
  RMM-DIIS:  cpu time    0.4242: real time    0.4245
    ORTHCH:  cpu time    0.0110: real time    0.0110
       DOS:  cpu time    0.0007: real time    0.0007
    CHARGE:  cpu time    0.0361: real time    0.0361
    MIXING:  cpu time    0.0083: real time    0.0083
    --------------------------------------------
      LOOP:  cpu time    0.6764: real time    0.6769

 eigenvalue-minimisations  :    68
 total energy-change (2. order) :-0.4421786E-04  (-0.2498143E-06)
 number of electron      48.0000250 magnetization 
 augmentation part        4.1693583 magnetization 

 DIPCOR: dipole corrections for dipol
 direction  1 min pos     1, direction  2 min pos     1, direction  3 min pos     1,
 dipolmoment           0.383941      0.217895     -0.130871 electrons x Angstroem
 Tr[quadrupol]        17.332559

 energy correction for charged system         0.000000 eV
 dipol+quadrupol energy correction           -0.000799 eV
 added-field ion interaction          0.002873 eV  (added to PSCEN)


 Broyden mixing:
  rms(total) = 0.10193E-03    rms(broyden)= 0.10170E-03
  rms(prec ) = 0.11520E-03
  weight for this iteration     100.00

 eigenvalues of (default mixing * dielectric matrix)
  average eigenvalue GAMMA=   2.4495
  9.0152  6.4388  4.3949  2.9105  2.3965  2.3965  1.6277  1.6277  1.0960  1.0960
  0.9601  0.9601  1.0797  1.0797  1.0561  1.0561

 Free energy of the ion-electron system (eV)
  ---------------------------------------------------
  alpha Z        PSCENC =         1.01120442
  Ewald energy   TEWEN  =      3088.91719270
  -Hartree energ DENC   =     -5456.84170772
  -exchange      EXHF   =         0.00000000
  -V(xc)+E(xc)   XCENC  =       205.14266622
  PAW double counting   =      3375.22487511    -3387.79617172
  entropy T*S    EENTRO =        -0.00000000
  eigenvalues    EBANDS =      -655.90314965
  atomic energy  EATOM  =      2743.32276819
  Solvation  Ediel_sol  =         0.00000000
  ---------------------------------------------------
  free energy    TOTEN  =       -86.92232244 eV

  energy without entropy =      -86.92232244  energy(sigma->0) =      -86.92232244


--------------------------------------------------------------------------------------------------------




--------------------------------------- Iteration      1(  22)  ---------------------------------------


    POTLOK:  cpu time    0.0997: real time    0.1000
    SETDIJ:  cpu time    0.0015: real time    0.0015
    EDDIAG:  cpu time    0.0943: real time    0.0943
  RMM-DIIS:  cpu time    0.4292: real time    0.4292
    ORTHCH:  cpu time    0.0102: real time    0.0102
       DOS:  cpu time    0.0015: real time    0.0015
    CHARGE:  cpu time    0.0357: real time    0.0357
    MIXING:  cpu time    0.0087: real time    0.0087
    --------------------------------------------
      LOOP:  cpu time    0.6810: real time    0.6812

 eigenvalue-minimisations  :    70
 total energy-change (2. order) :-0.8591389E-05  (-0.4172895E-07)
 number of electron      48.0000250 magnetization 
 augmentation part        4.1693650 magnetization 

 DIPCOR: dipole corrections for dipol
 direction  1 min pos     1, direction  2 min pos     1, direction  3 min pos     1,
 dipolmoment           0.384195      0.218098     -0.130977 electrons x Angstroem
 Tr[quadrupol]        17.330563

 energy correction for charged system         0.000000 eV
 dipol+quadrupol energy correction           -0.000800 eV
 added-field ion interaction          0.002875 eV  (added to PSCEN)


 Broyden mixing:
  rms(total) = 0.38625E-04    rms(broyden)= 0.38576E-04
  rms(prec ) = 0.48756E-04
  weight for this iteration     100.00

 eigenvalues of (default mixing * dielectric matrix)
  average eigenvalue GAMMA=   2.4517
  9.1573  6.5939  4.6705  3.0688  2.5607  2.2791  2.2791  1.4674  1.4674  1.0732
  1.0732  1.0738  1.0738  0.9463  0.9463  1.0196  0.9280

 Free energy of the ion-electron system (eV)
  ---------------------------------------------------
  alpha Z        PSCENC =         1.01120536
  Ewald energy   TEWEN  =      3088.91719270
  -Hartree energ DENC   =     -5456.83580065
  -exchange      EXHF   =         0.00000000
  -V(xc)+E(xc)   XCENC  =       205.14230516
  PAW double counting   =      3375.21799008    -3387.78919851
  entropy T*S    EENTRO =        -0.00000000
  eigenvalues    EBANDS =      -655.90879336
  atomic energy  EATOM  =      2743.32276819
  Solvation  Ediel_sol  =         0.00000000
  ---------------------------------------------------
  free energy    TOTEN  =       -86.92233103 eV

  energy without entropy =      -86.92233103  energy(sigma->0) =      -86.92233103


--------------------------------------------------------------------------------------------------------




--------------------------------------- Iteration      1(  23)  ---------------------------------------


    POTLOK:  cpu time    0.1007: real time    0.1009
    SETDIJ:  cpu time    0.0017: real time    0.0017
    EDDIAG:  cpu time    0.0940: real time    0.0942
  RMM-DIIS:  cpu time    0.3814: real time    0.3815
    ORTHCH:  cpu time    0.0103: real time    0.0103
       DOS:  cpu time    0.0017: real time    0.0017
    CHARGE:  cpu time    0.0378: real time    0.0378
    MIXING:  cpu time    0.0162: real time    0.0162
    --------------------------------------------
      LOOP:  cpu time    0.6438: real time    0.6441

 eigenvalue-minimisations  :    58
 total energy-change (2. order) :-0.5680650E-05  (-0.1282002E-07)
 number of electron      48.0000250 magnetization 
 augmentation part        4.1693602 magnetization 

 DIPCOR: dipole corrections for dipol
 direction  1 min pos     1, direction  2 min pos     1, direction  3 min pos     1,
 dipolmoment           0.384405      0.218279     -0.131071 electrons x Angstroem
 Tr[quadrupol]        17.329001

 energy correction for charged system         0.000000 eV
 dipol+quadrupol energy correction           -0.000801 eV
 added-field ion interaction          0.002877 eV  (added to PSCEN)


 Broyden mixing:
  rms(total) = 0.48226E-04    rms(broyden)= 0.48214E-04
  rms(prec ) = 0.54324E-04
  weight for this iteration     100.00

 eigenvalues of (default mixing * dielectric matrix)
  average eigenvalue GAMMA=   2.4665
  9.2580  6.9171  4.8567  3.4100  2.7009  2.3935  2.3935  1.5801  1.5801  1.0824
  1.0824  1.0469  1.0469  1.0806  1.0806  0.9580  0.9643  0.9643

 Free energy of the ion-electron system (eV)
  ---------------------------------------------------
  alpha Z        PSCENC =         1.01120616
  Ewald energy   TEWEN  =      3088.91719270
  -Hartree energ DENC   =     -5456.83754879
  -exchange      EXHF   =         0.00000000
  -V(xc)+E(xc)   XCENC  =       205.14240530
  PAW double counting   =      3375.22679781    -3387.79803115
  entropy T*S    EENTRO =        -0.00000000
  eigenvalues    EBANDS =      -655.90712694
  atomic energy  EATOM  =      2743.32276819
  Solvation  Ediel_sol  =         0.00000000
  ---------------------------------------------------
  free energy    TOTEN  =       -86.92233671 eV

  energy without entropy =      -86.92233671  energy(sigma->0) =      -86.92233671


--------------------------------------------------------------------------------------------------------




--------------------------------------- Iteration      1(  24)  ---------------------------------------


    POTLOK:  cpu time    0.1007: real time    0.1008
    SETDIJ:  cpu time    0.0017: real time    0.0017
    EDDIAG:  cpu time    0.0940: real time    0.0940
  RMM-DIIS:  cpu time    0.3673: real time    0.3675
    ORTHCH:  cpu time    0.0106: real time    0.0106
       DOS:  cpu time    0.0015: real time    0.0015
    CHARGE:  cpu time    0.0367: real time    0.0367
    MIXING:  cpu time    0.0095: real time    0.0095
    --------------------------------------------
      LOOP:  cpu time    0.6219: real time    0.6223

 eigenvalue-minimisations  :    48
 total energy-change (2. order) :-0.2903579E-05  (-0.5566859E-08)
 number of electron      48.0000250 magnetization 
 augmentation part        4.1693590 magnetization 

 DIPCOR: dipole corrections for dipol
 direction  1 min pos     1, direction  2 min pos     1, direction  3 min pos     1,
 dipolmoment           0.384534      0.218403     -0.131134 electrons x Angstroem
 Tr[quadrupol]        17.327969

 energy correction for charged system         0.000000 eV
 dipol+quadrupol energy correction           -0.000802 eV
 added-field ion interaction          0.002878 eV  (added to PSCEN)


 Broyden mixing:
  rms(total) = 0.20358E-04    rms(broyden)= 0.20336E-04
  rms(prec ) = 0.23992E-04
  weight for this iteration     100.00

 eigenvalues of (default mixing * dielectric matrix)
  average eigenvalue GAMMA=   2.4007
  9.2753  6.9768  4.8931  3.4511  2.6929  2.4726  1.9601  1.9601  1.1483  1.1483
  1.2405  1.2405  1.2654  1.0633  1.0633  0.9938  0.9457  0.9457  0.8770

 Free energy of the ion-electron system (eV)
  ---------------------------------------------------
  alpha Z        PSCENC =         1.01120668
  Ewald energy   TEWEN  =      3088.91719270
  -Hartree energ DENC   =     -5456.83720488
  -exchange      EXHF   =         0.00000000
  -V(xc)+E(xc)   XCENC  =       205.14240012
  PAW double counting   =      3375.21766028    -3387.78888314
  entropy T*S    EENTRO =        -0.00000000
  eigenvalues    EBANDS =      -655.90747958
  atomic energy  EATOM  =      2743.32276819
  Solvation  Ediel_sol  =         0.00000000
  ---------------------------------------------------
  free energy    TOTEN  =       -86.92233962 eV

  energy without entropy =      -86.92233962  energy(sigma->0) =      -86.92233962


--------------------------------------------------------------------------------------------------------




--------------------------------------- Iteration      1(  25)  ---------------------------------------


    POTLOK:  cpu time    0.1043: real time    0.1045
    SETDIJ:  cpu time    0.0019: real time    0.0019
    EDDIAG:  cpu time    0.0962: real time    0.0962
  RMM-DIIS:  cpu time    0.3942: real time    0.3943
    ORTHCH:  cpu time    0.0113: real time    0.0113
       DOS:  cpu time    0.0008: real time    0.0008
    CHARGE:  cpu time    0.0361: real time    0.0361
    MIXING:  cpu time    0.0109: real time    0.0109
    --------------------------------------------
      LOOP:  cpu time    0.6558: real time    0.6560

 eigenvalue-minimisations  :    53
 total energy-change (2. order) :-0.1126321E-05  (-0.2574213E-08)
 number of electron      48.0000250 magnetization 
 augmentation part        4.1693628 magnetization 

 DIPCOR: dipole corrections for dipol
 direction  1 min pos     1, direction  2 min pos     1, direction  3 min pos     1,
 dipolmoment           0.384569      0.218443     -0.131154 electrons x Angstroem
 Tr[quadrupol]        17.327620

 energy correction for charged system         0.000000 eV
 dipol+quadrupol energy correction           -0.000802 eV
 added-field ion interaction          0.002878 eV  (added to PSCEN)


 Broyden mixing:
  rms(total) = 0.12515E-04    rms(broyden)= 0.12497E-04
  rms(prec ) = 0.15403E-04
  weight for this iteration     100.00

 eigenvalues of (default mixing * dielectric matrix)
  average eigenvalue GAMMA=   2.3737
  9.2711  7.0378  4.9231  3.4501  2.7342  2.4260  2.1778  2.1778  1.7568  1.4351
  1.0880  1.0880  1.2127  1.0582  1.0582  0.9735  0.9735  0.8865  0.8732  0.8732

 Free energy of the ion-electron system (eV)
  ---------------------------------------------------
  alpha Z        PSCENC =         1.01120683
  Ewald energy   TEWEN  =      3088.91719270
  -Hartree energ DENC   =     -5456.83645247
  -exchange      EXHF   =         0.00000000
  -V(xc)+E(xc)   XCENC  =       205.14235476
  PAW double counting   =      3375.21579512    -3387.78699696
  entropy T*S    EENTRO =        -0.00000000
  eigenvalues    EBANDS =      -655.90820892
  atomic energy  EATOM  =      2743.32276819
  Solvation  Ediel_sol  =         0.00000000
  ---------------------------------------------------
  free energy    TOTEN  =       -86.92234074 eV

  energy without entropy =      -86.92234074  energy(sigma->0) =      -86.92234074


--------------------------------------------------------------------------------------------------------




--------------------------------------- Iteration      1(  26)  ---------------------------------------


    POTLOK:  cpu time    0.1045: real time    0.1047
    SETDIJ:  cpu time    0.0015: real time    0.0015
    EDDIAG:  cpu time    0.0944: real time    0.0944
  RMM-DIIS:  cpu time    0.3428: real time    0.3430
    ORTHCH:  cpu time    0.0115: real time    0.0115
       DOS:  cpu time    0.0011: real time    0.0011
    CHARGE:  cpu time    0.0353: real time    0.0353
    MIXING:  cpu time    0.0107: real time    0.0107
    --------------------------------------------
      LOOP:  cpu time    0.6018: real time    0.6022

 eigenvalue-minimisations  :    47
 total energy-change (2. order) :-0.1545127E-05  (-0.2547161E-08)
 number of electron      48.0000250 magnetization 
 augmentation part        4.1693629 magnetization 

 DIPCOR: dipole corrections for dipol
 direction  1 min pos     1, direction  2 min pos     1, direction  3 min pos     1,
 dipolmoment           0.384608      0.218492     -0.131179 electrons x Angstroem
 Tr[quadrupol]        17.327221

 energy correction for charged system         0.000000 eV
 dipol+quadrupol energy correction           -0.000802 eV
 added-field ion interaction          0.002879 eV  (added to PSCEN)


 Broyden mixing:
  rms(total) = 0.18221E-04    rms(broyden)= 0.18210E-04
  rms(prec ) = 0.20093E-04
  weight for this iteration     100.00

 eigenvalues of (default mixing * dielectric matrix)
  average eigenvalue GAMMA=   2.3914
  9.3581  7.2031  5.2470  4.1063  2.8390  2.6669  2.3916  2.2894  1.5928  1.5928
  1.1064  1.1064  1.0480  1.0480  1.0976  0.9753  0.9753  0.9935  0.9935  0.7946
  0.7946

 Free energy of the ion-electron system (eV)
  ---------------------------------------------------
  alpha Z        PSCENC =         1.01120701
  Ewald energy   TEWEN  =      3088.91719270
  -Hartree energ DENC   =     -5456.83583379
  -exchange      EXHF   =         0.00000000
  -V(xc)+E(xc)   XCENC  =       205.14232177
  PAW double counting   =      3375.21678217    -3387.78797224
  entropy T*S    EENTRO =        -0.00000000
  eigenvalues    EBANDS =      -655.90880810
  atomic energy  EATOM  =      2743.32276819
  Solvation  Ediel_sol  =         0.00000000
  ---------------------------------------------------
  free energy    TOTEN  =       -86.92234229 eV

  energy without entropy =      -86.92234229  energy(sigma->0) =      -86.92234229


--------------------------------------------------------------------------------------------------------




--------------------------------------- Iteration      1(  27)  ---------------------------------------


    POTLOK:  cpu time    0.1033: real time    0.1034
    SETDIJ:  cpu time    0.0017: real time    0.0017
    EDDIAG:  cpu time    0.0935: real time    0.0935
  RMM-DIIS:  cpu time    0.3861: real time    0.3861
    ORTHCH:  cpu time    0.0110: real time    0.0110
       DOS:  cpu time    0.0014: real time    0.0014
    --------------------------------------------
      LOOP:  cpu time    0.5968: real time    0.5970

 eigenvalue-minimisations  :    46
 total energy-change (2. order) :-0.8193133E-06  (-0.5930207E-09)
 number of electron      48.0000250 magnetization 
 augmentation part        4.1693629 magnetization 

 DIPCOR: dipole corrections for dipol
 direction  1 min pos     1, direction  2 min pos     1, direction  3 min pos     1,
 dipolmoment           0.384633      0.218523     -0.131194 electrons x Angstroem
 Tr[quadrupol]        17.326984

 energy correction for charged system         0.000000 eV
 dipol+quadrupol energy correction           -0.000803 eV
[...]
     10.78868     10.55281      8.43955         0.002061      0.003728     -0.003229
     10.63179      9.41967     11.66724        -0.002257      0.001928      0.000587
     12.82796     10.05561     10.19278        -0.003914      0.005551      0.000405
      9.19657      8.33880      9.42421        -0.001789      0.000242     -0.000342
      7.19412     10.05134      9.95280         0.016803      0.004779     -0.013446
      9.33685     11.66968     10.32045        -0.002897      0.003112      0.001158
 -----------------------------------------------------------------------------------
    total drift:                               -0.004354      0.002213     -0.022859


--------------------------------------------------------------------------------------------------------



  FREE ENERGIE OF THE ION-ELECTRON SYSTEM (eV)
  ---------------------------------------------------
  free  energy   TOTEN  =       -87.49041200 eV

  energy  without entropy=      -87.49041200  energy(sigma->0) =      -87.49041200
 
 d Force = 0.9289606E-05[-0.499E-05, 0.236E-04]  d Energy = 0.9352172E-05-0.626E-07
 d Force = 0.9956829E-02[ 0.105E-01, 0.940E-02]  d Ewald  = 0.9956855E-02-0.260E-07


--------------------------------------------------------------------------------------------------------


    POTLOK:  cpu time    0.1056: real time    0.1059


--------------------------------------------------------------------------------------------------------


    WAVPRE:  cpu time    0.0123: real time    0.1854
    FEWALD:  cpu time    0.0005: real time    0.0007
    ORTHCH:  cpu time    0.0415: real time    0.0415
     LOOP+:  cpu time   11.1154: real time   11.3193


--------------------------------------- Iteration     64(   1)  ---------------------------------------


    POTLOK:  cpu time    0.1056: real time    0.1065
    SETDIJ:  cpu time    0.0015: real time    0.0015
     EDDAV:  cpu time    0.5690: real time    0.5698
       DOS:  cpu time    0.0013: real time    0.0014
    CHARGE:  cpu time    0.0355: real time    0.0355
    MIXING:  cpu time    0.0031: real time    0.0031
    --------------------------------------------
      LOOP:  cpu time    0.7161: real time    0.7178

 eigenvalue-minimisations  :    88
 total energy-change (2. order) :-0.7838702E-04  (-0.1705289E-03)
 number of electron      48.0001163 magnetization 
 augmentation part        4.1607366 magnetization 

 DIPCOR: dipole corrections for dipol
 direction  1 min pos     1, direction  2 min pos     1, direction  3 min pos     1,
 dipolmoment           0.312958      0.259106     -0.119008 electrons x Angstroem
 Tr[quadrupol]        18.166525

 energy correction for charged system         0.000000 eV
 dipol+quadrupol energy correction           -0.000676 eV
 added-field ion interaction          0.003015 eV  (added to PSCEN)


  free energy =  -0.874904894346E+02  energy without entropy=  -0.874904894346E+02


--------------------------------------------------------------------------------------------------------




--------------------------------------- Iteration     64(   2)  ---------------------------------------


    POTLOK:  cpu time    0.1058: real time    0.1060
    SETDIJ:  cpu time    0.0017: real time    0.0017
    EDDIAG:  cpu time    0.0928: real time    0.0929
  RMM-DIIS:  cpu time    0.4395: real time    0.4453
    ORTHCH:  cpu time    0.0105: real time    0.0105
       DOS:  cpu time    0.0014: real time    0.0014
    CHARGE:  cpu time    0.0356: real time    0.0356
    MIXING:  cpu time    0.0036: real time    0.0036
    --------------------------------------------
      LOOP:  cpu time    0.6907: real time    0.6969

 eigenvalue-minimisations  :    77
 total energy-change (2. order) : 0.4847857E-04  (-0.9703793E-05)
 number of electron      48.0001163 magnetization 
 augmentation part        4.1606335 magnetization 

 DIPCOR: dipole corrections for dipol
 direction  1 min pos     1, direction  2 min pos     1, direction  3 min pos     1,
 dipolmoment           0.313120      0.259419     -0.118840 electrons x Angstroem
 Tr[quadrupol]        18.167189

 energy correction for charged system         0.000000 eV
 dipol+quadrupol energy correction           -0.000677 eV
 added-field ion interaction          0.003016 eV  (added to PSCEN)


 eigenvalues of (default mixing * dielectric matrix)
  average eigenvalue GAMMA=   2.0948
  2.0948

  free energy =  -0.874904409560E+02  energy without entropy=  -0.874904409560E+02


--------------------------------------------------------------------------------------------------------




--------------------------------------- Iteration     64(   3)  ---------------------------------------


    POTLOK:  cpu time    0.1055: real time    0.1058
    SETDIJ:  cpu time    0.0015: real time    0.0015
    EDDIAG:  cpu time    0.0935: real time    0.0935
  RMM-DIIS:  cpu time    0.4751: real time    0.4757
    ORTHCH:  cpu time    0.0103: real time    0.0103
       DOS:  cpu time    0.0016: real time    0.0016
    CHARGE:  cpu time    0.0353: real time    0.0355
    MIXING:  cpu time    0.0037: real time    0.0037
    --------------------------------------------
      LOOP:  cpu time    0.7265: real time    0.7276

 eigenvalue-minimisations  :    82
 total energy-change (2. order) : 0.2267556E-04  (-0.9556493E-05)
 number of electron      48.0001162 magnetization 
 augmentation part        4.1605262 magnetization 

 DIPCOR: dipole corrections for dipol
 direction  1 min pos     1, direction  2 min pos     1, direction  3 min pos     1,
 dipolmoment           0.313380      0.259929     -0.118542 electrons x Angstroem
 Tr[quadrupol]        18.168338

 energy correction for charged system         0.000000 eV
 dipol+quadrupol energy correction           -0.000678 eV
 added-field ion interaction          0.003017 eV  (added to PSCEN)


 eigenvalues of (default mixing * dielectric matrix)
  average eigenvalue GAMMA=   1.4352
  0.9740  1.8965

  free energy =  -0.874904182804E+02  energy without entropy=  -0.874904182804E+02


--------------------------------------------------------------------------------------------------------




--------------------------------------- Iteration     64(   4)  ---------------------------------------


    POTLOK:  cpu time    0.1046: real time    0.1048
    SETDIJ:  cpu time    0.0015: real time    0.0015
    EDDIAG:  cpu time    0.0935: real time    0.0937
  RMM-DIIS:  cpu time    0.4613: real time    0.4618
    ORTHCH:  cpu time    0.0105: real time    0.0105
       DOS:  cpu time    0.0015: real time    0.0015
    --------------------------------------------
      LOOP:  cpu time    0.6729: real time    0.6738

 eigenvalue-minimisations  :    72
 total energy-change (2. order) : 0.5706315E-06  (-0.1452849E-06)
 number of electron      48.0001162 magnetization 
 augmentation part        4.1605262 magnetization 

 DIPCOR: dipole corrections for dipol
 direction  1 min pos     1, direction  2 min pos     1, direction  3 min pos     1,
 dipolmoment           0.313409      0.259985     -0.118507 electrons x Angstroem
 Tr[quadrupol]        18.168528

 energy correction for charged system         0.000000 eV
 dipol+quadrupol energy correction           -0.000678 eV
 added-field ion interaction          0.003017 eV  (added to PSCEN)


  free energy =  -0.874904177098E+02  energy without entropy=  -0.874904177098E+02


--------------------------------------------------------------------------------------------------------




 average (electrostatic) potential at core
  the test charge radii are     0.5201  0.7215
  (the norm of the test charge is              1.0000)
       1 -43.8551       2 -43.3903       3 -43.9372       4 -43.8276       5 -43.3519
       6 -44.4525       7 -43.8171       8 -44.9721       9 -44.8659      10 -43.8367
      11 -43.3109      12 -44.8771      13 -80.2129      14 -80.2830      15 -80.3004
      16 -80.8798      17 -80.7768      18 -80.7665
 
 
 
 E-fermi :  -6.4071     XC(G=0):  -0.3109     alpha+bet : -0.0975


 k-point     1 :       0.0000    0.0000    0.0000
  band No.  band energies     occupation 
      1     -25.6898      2.00000
      2     -25.3334      2.00000
      3     -25.2277      2.00000
      4     -24.9918      2.00000
      5     -24.7970      2.00000
      6     -24.5140      2.00000
      7     -13.6835      2.00000
      8     -13.2904      2.00000
      9     -13.0294      2.00000
     10     -12.9592      2.00000
     11     -12.5628      2.00000
     12     -12.4471      2.00000
     13     -10.5888      2.00000
     14      -9.7755      2.00000
     15      -9.6009      2.00000
     16      -9.1791      2.00000
     17      -9.0799      2.00000
     18      -8.4764      2.00000
     19      -7.6703      2.00000
     20      -7.5984      2.00000
     21      -7.4899      2.00000
     22      -7.1923      2.00000
     23      -6.9751      2.00000
     24      -6.9133      2.00000
     25      -1.2267      0.00000
     26      -0.5085      0.00000
     27      -0.4482      0.00000
     28      -0.1018      0.00000
     29       0.0563      0.00000
     30       0.2214      0.00000
     31       0.3173      0.00000
     32       0.4354      0.00000
     33       0.4501      0.00000
     34       0.4563      0.00000
     35       0.5224      0.00000
     36       0.5529      0.00000


--------------------------------------------------------------------------------------------------------


 soft charge-density along one line, spin component           1
         0         1         2         3         4         5         6         7         8         9
 total charge-density along one line
 
 pseudopotential strength for first ion, spin component:           1
 -2.374  -4.098  -0.002   0.000  -0.001
 -4.098  -6.987  -0.007   0.000  -0.004
 -0.002  -0.007  -0.320  -0.000   0.003
  0.000   0.000  -0.000  -0.326  -0.000
 -0.001  -0.004   0.003  -0.000  -0.324
 total augmentation occupancy for first ion, spin component:           1
  3.960  -0.897   0.602  -0.022   0.334
 -0.897   0.245  -0.133   0.006  -0.070
  0.602  -0.133   0.109  -0.003   0.046
 -0.022   0.006  -0.003   0.032  -0.006
  0.334  -0.070   0.046  -0.006   0.051


------------------------ aborting loop because EDIFF is reached ----------------------------------------


 


 total charge     
 
# of ion       s       p       d       tot
------------------------------------------
    1        0.602   0.113   0.000   0.716
    2        0.579   0.113   0.000   0.691
    3        0.604   0.113   0.000   0.717
    4        0.598   0.114   0.000   0.712
    5        0.573   0.113   0.000   0.685
    6        0.628   0.115   0.000   0.742
    7        0.567   0.112   0.000   0.679
    8        0.625   0.115   0.000   0.740
    9        0.626   0.114   0.000   0.740
   10        0.573   0.113   0.000   0.686
   11        0.544   0.107   0.000   0.651
   12        0.624   0.115   0.000   0.739
   13        1.584   3.643   0.000   5.227
   14        1.586   3.638   0.000   5.223
   15        1.585   3.636   0.000   5.221
   16        1.583   3.642   0.000   5.225
   17        1.585   3.638   0.000   5.223
   18        1.581   3.642   0.000   5.223
--------------------------------------------------
tot         16.647  23.195   0.000  39.842
 
    CHARGE:  cpu time    0.0357: real time    0.0357
    FORLOC:  cpu time    0.0094: real time    0.0094
    FORNL :  cpu time    0.0832: real time    0.0833
    STRESS:  cpu time    0.2430: real time    0.2431
    FORCOR:  cpu time    0.0948: real time    0.0948
    FORHAR:  cpu time    0.0292: real time    0.0292
    MIXING:  cpu time    0.0038: real time    0.0038
    OFIELD:  cpu time    0.0001: real time    0.0001

  FORCE on cell =-STRESS in cart. coord.  units (eV):
  Direction    XX          YY          ZZ          XY          YZ          ZX
  --------------------------------------------------------------------------------------
  Alpha Z     1.00913     1.00913     1.00913
  Ewald    1724.68912   893.50201   522.45219     4.65056    53.70602   -43.40024
  Hartree  2440.15074  1603.96704  1462.90978     8.62671    -4.38455     7.87833
  E(xc)    -217.16253  -217.14702  -218.12969    -0.02078     0.29487    -0.28686
  Local   -4708.93387 -3009.93477 -2571.60545   -12.15466   -31.79133    21.25828
  n-local  -184.93335  -184.55997  -185.78082    -0.15839     0.80058    -0.60471
  augment    41.33712    39.17992    44.04848    -0.06841    -1.15125     0.92918
  Kinetic   899.23331   869.50593   940.30643    -0.84989   -17.40023    14.20779
  Fock        0.00000     0.00000     0.00000     0.00000     0.00000     0.00000
  -------------------------------------------------------------------------------------
  Total      -4.61032    -4.47773    -4.78995     0.02515     0.07411    -0.01823
  in kB      -0.92332    -0.89676    -0.95929     0.00504     0.01484    -0.00365
  external pressure =       -0.93 kB  Pullay stress =        0.00 kB


 VOLUME and BASIS-vectors are now :
 -----------------------------------------------------------------------------
  energy-cutoff  :      400.00
  volume of cell :     8000.00
      direct lattice vectors                 reciprocal lattice vectors
    20.000001179  0.000000000  0.000000000     0.049999997 -0.000000000 -0.000000000
     0.000000000 20.000001179  0.000000000     0.000000000  0.049999997 -0.000000000
     0.000000000  0.000000000 20.000001179     0.000000000  0.000000000  0.049999997

  length of vectors
    20.000001179 20.000001179 20.000001179     0.049999997  0.049999997  0.049999997


 FORCES acting on ions
    electron-ion (+dipol)            ewald-force                    non-local-force                 convergence-correction
 -----------------------------------------------------------------------------------------------
   0.262E+02 0.686E+02 0.414E+02   -.302E+02 -.755E+02 -.412E+02   0.396E+01 0.694E+01 -.216E+00   -.198E-05 -.703E-04 -.115E-03
   -.804E+02 0.117E+01 0.431E+01   0.870E+02 -.232E+01 -.856E+00   -.658E+01 0.116E+01 -.346E+01   -.653E-03 -.786E-04 -.592E-03
   0.269E+02 -.698E+02 -.358E+02   -.303E+02 0.770E+02 0.349E+02   0.339E+01 -.721E+01 0.945E+00   -.991E-04 -.365E-03 -.120E-03
   0.272E+02 0.715E+02 0.141E+02   -.309E+02 -.763E+02 -.192E+02   0.368E+01 0.478E+01 0.513E+01   -.349E-03 -.218E-03 -.233E-03
   0.335E+01 0.250E+02 -.586E+02   -.842E+01 -.271E+02 0.635E+02   0.507E+01 0.214E+01 -.484E+01   -.433E-03 -.290E-03 0.136E-03
   -.929E+02 0.652E+02 0.429E+01   0.989E+02 -.708E+02 -.477E+01   -.602E+01 0.568E+01 0.472E+00   0.230E-03 -.290E-03 -.579E-04
   0.737E+02 0.139E+01 0.128E+01   -.798E+02 0.234E+01 -.733E-01   0.605E+01 -.373E+01 -.121E+01   0.266E-03 -.334E-03 -.975E-04
   0.268E+02 0.109E+03 0.393E+02   -.287E+02 -.117E+03 -.420E+02   0.188E+01 0.762E+01 0.275E+01   0.443E-04 0.218E-03 0.943E-04
   0.764E+02 0.126E+02 -.819E+02   -.807E+02 -.137E+02 0.889E+02   0.429E+01 0.113E+01 -.700E+01   0.192E-03 -.207E-03 -.353E-04
   -.841E+00 -.624E+02 -.123E+02   0.575E+01 0.678E+02 0.134E+02   -.491E+01 -.544E+01 -.105E+01   0.209E-03 -.144E-03 -.226E-03
   -.273E+02 -.234E+02 0.498E+02   0.310E+02 0.213E+02 -.547E+02   -.366E+01 0.203E+01 0.489E+01   -.263E-03 -.295E-03 -.773E-04
   0.429E+01 -.120E+03 -.925E+01   -.413E+01 0.128E+03 0.954E+01   -.160E+00 -.830E+01 -.290E+00   -.187E-03 -.530E-03 -.176E-03
   -.651E+02 -.103E+03 0.259E+03   0.563E+02 0.137E+03 -.280E+03   0.881E+01 -.348E+02 0.219E+02   0.127E-02 0.387E-03 -.759E-03
   -.710E+02 0.926E+02 -.265E+03   0.100E+03 -.105E+03 0.296E+03   -.293E+02 0.122E+02 -.308E+02   -.123E-02 -.429E-03 -.234E-03
   -.239E+03 -.509E+02 0.310E+01   0.237E+03 0.894E+02 -.205E+02   0.251E+01 -.385E+02 0.174E+02   0.422E-04 -.123E-02 -.762E-03
   0.135E+02 0.206E+03 0.730E+02   0.224E+02 -.188E+03 -.665E+02   -.359E+02 -.177E+02 -.653E+01   -.779E-03 -.137E-02 -.118E-02
   0.251E+03 0.991E+01 0.460E+02   -.257E+03 -.263E+02 -.851E+02   0.619E+01 0.164E+02 0.391E+02   0.210E-02 -.129E-02 -.102E-02
   0.725E+02 -.206E+03 -.873E+02   -.880E+02 0.179E+03 0.109E+03   0.155E+02 0.269E+02 -.220E+02   -.188E-02 -.159E-02 -.441E-03
 -----------------------------------------------------------------------------------------------
   0.252E+02 0.288E+02 -.152E+02   0.000E+00 -.171E-12 -.568E-13   -.252E+02 -.288E+02 0.152E+02   -.152E-02 -.812E-02 -.589E-02
 
 
 POSITION                                       TOTAL-FORCE (eV/Angst)
 -----------------------------------------------------------------------------------
     10.31529      9.69059      8.48066        -0.000031     -0.000021      0.002429
     11.65113     10.37472      8.90974        -0.004271      0.002922     -0.000434
     10.20433     10.29551     11.53217         0.000852      0.001500      0.001963
     10.16164      8.84369     11.01827         0.002848     -0.000107      0.001286
     12.14615      9.73520     10.85399         0.001536     -0.000892      0.000694
     13.51854      9.37383     10.15082        -0.001327     -0.001683     -0.000252
      8.33861      8.83733      9.58705        -0.001227      0.000495     -0.002450
      8.95476      7.45360      9.10559        -0.000398     -0.002569     -0.001561
      6.70781      9.93242     10.78609        -0.005015     -0.003400      0.000820
      7.85272     10.78548     10.12483        -0.002786      0.000027     -0.001519
      9.92448     11.36370      9.53814         0.001477     -0.001865      0.004157
      9.36527     12.64065     10.33810         0.002027      0.001879      0.001481
     10.78874     10.55304      8.43958         0.003248      0.005675     -0.002911
     10.63179      9.41972     11.66724        -0.000252     -0.002630      0.000632
     12.82801     10.05552     10.19283         0.000373      0.002678     -0.000638
      9.19665      8.33886      9.42416        -0.002111     -0.000899     -0.000492
      7.19410     10.05136      9.95273         0.007111     -0.000638     -0.003613
      9.33679     11.66966     10.32063        -0.002053     -0.000472      0.000408
 -----------------------------------------------------------------------------------
    total drift:                               -0.003894      0.003420     -0.022438


--------------------------------------------------------------------------------------------------------



  FREE ENERGIE OF THE ION-ELECTRON SYSTEM (eV)
  ---------------------------------------------------
  free  energy   TOTEN  =       -87.49041771 eV

  energy  without entropy=      -87.49041771  energy(sigma->0) =      -87.49041771
 
 d Force = 0.8294257E-05[ 0.492E-05, 0.117E-04]  d Energy = 0.5708681E-05 0.259E-05
 d Force = 0.3268495E-01[ 0.327E-01, 0.327E-01]  d Ewald  = 0.3268495E-01-0.135E-08


--------------------------------------------------------------------------------------------------------


    POTLOK:  cpu time    0.1042: real time    0.1056


--------------------------------------------------------------------------------------------------------



 total amount of memory used by VASP MPI-rank0    52198. kBytes
=======================================================================

   base      :      30000. kBytes
   nonl-proj :       5035. kBytes
   fftplans  :       6155. kBytes
   grid      :       9257. kBytes
   one-center:          6. kBytes
   wavefun   :       1745. kBytes
 
  
  
 General timing and accounting informations for this job:
 ========================================================
  
                  Total CPU time used (sec):      819.530
                            User time (sec):      788.612
                          System time (sec):       30.918
                         Elapsed time (sec):      832.983
  
                   Maximum memory used (kb):      116228.
                   Average memory used (kb):           0.
  
                          Minor page faults:      4605947
                          Major page faults:            0
                 Voluntary context switches:         5746
