<?xml version="1.0" encoding="ISO-8859-1"?>
<modeling>
 <generator>
  <i name="program" type="string">vasp </i>
  <i name="version" type="string">5.4.4.18Apr17-6-g9f103f2a35  </i>
  <i name="subversion" type="string">(build Sep 04 2019 18:34:39) complex            parallel </i>
  <i name="platform" type="string">LinuxIFC </i>
  <i name="date" type="string">2012 06 17 </i>
  <i name="time" type="string">19:04:03 </i>
 </generator>
 <incar>
  <i type="string" name="SYSTEM"> VaspCalc</i>
  <i type="int" name="ISTART">     1</i>
  <i type="string" name="PREC">med</i>
  <i type="string" name="ALGO"> Fast</i>
  <i type="int" name="ISPIN">     1</i>
  <i type="int" name="NELM">   400</i>
  <i type="int" name="NELMIN">     4</i>
  <i type="int" name="IBRION">    -1</i>
  <i name="EDIFF">      0.00000100</i>
  <i type="int" name="NSW">   100</i>
  <i type="int" name="ISMEAR">     0</i>
  <i name="SIGMA">      0.10000000</i>
  <i type="int" name="NWRITE">     1</i>
  <i type="logical" name="LWAVE"> F  </i>
  <i type="logical" name="LCHARG"> F  </i>
  <i type="int" name="LORBIT">    11</i>
  <v type="int" name="KPOINT_BSE">    -1     0     0     0</v>
  <i type="int" name="NELM">   400</i>
  <i type="logical" name="LDIPOL"> T  </i>
  <i type="int" name="IDIPOL">     4</i>
  <v name="DIPOL">      0.50000000      0.50000000      0.50000000</v>
 </incar>
 <structure name="primitive_cell" >
  <crystal>
   <varray name="basis" >
    <v>      20.00000000       0.00000000       0.00000000 </v>
    <v>       0.00000000      20.00000000       0.00000000 </v>
    <v>       0.00000000       0.00000000      20.00000000 </v>
   </varray>
   <i name="volume">   8000.00000000 </i>
   <varray name="rec_basis" >
    <v>       0.05000000       0.00000000       0.00000000 </v>
    <v>       0.00000000       0.05000000       0.00000000 </v>
    <v>       0.00000000       0.00000000       0.05000000 </v>
   </varray>
  </crystal>
  <varray name="positions" >
   <v>      -0.48303956       0.48231771       0.42450384 </v>
   <v>      -0.46068766      -0.47473274       0.42129739 </v>
   <v>      -0.41749591      -0.48250704       0.44267829 </v>
   <v>       0.46046439       0.41406651       0.47018254 </v>
   <v>       0.49542619      -0.43038154       0.47781379 </v>
   <v>       0.41832169       0.43807436       0.47809879 </v>
   <v>      -0.49118241       0.44253796      -0.44805986 </v>
   <v>       0.44818364       0.37077486       0.45331244 </v>
   <v>       0.46704339      -0.41480074      -0.48442976 </v>
   <v>      -0.38932896       0.48867021      -0.45702956 </v>
   <v>      -0.35631286      -0.49554419      -0.48963226 </v>
   <v>      -0.49041156      -0.48551269      -0.42400856 </v>
   <v>      -0.46851466       0.47185586      -0.41671716 </v>
   <v>       0.39097829      -0.46184444      -0.49368261 </v>
   <v>       0.36007474      -0.49887749       0.49787849 </v>
   <v>       0.47029514      -0.36684739      -0.48418125 </v>
   <v>      -0.31797336       0.47599011      -0.48460121 </v>
   <v>       0.32000000       0.49750456      -0.46229341 </v>
  </varray>
 </structure>
 <varray name="primitive_index" >
  <v type="int" >        1 </v>
  <v type="int" >       13 </v>
  <v type="int" >        2 </v>
  <v type="int" >       16 </v>
  <v type="int" >       11 </v>
  <v type="int" >        7 </v>
  <v type="int" >        4 </v>
  <v type="int" >        8 </v>
  <v type="int" >       18 </v>
  <v type="int" >        5 </v>
  <v type="int" >       15 </v>
  <v type="int" >        3 </v>
  <v type="int" >       14 </v>
  <v type="int" >       10 </v>
  <v type="int" >       17 </v>
  <v type="int" >       12 </v>
  <v type="int" >        6 </v>
  <v type="int" >        9 </v>
 </varray>
 <kpoints>
  <generation param="Gamma">
   <v type="int" name="divisions">       1        1        1 </v>
   <v name="usershift">      0.00000000       0.00000000       0.00000000 </v>
   <v name="genvec1">      1.00000000       0.00000000       0.00000000 </v>
   <v name="genvec2">      0.00000000       1.00000000       0.00000000 </v>
   <v name="genvec3">      0.00000000       0.00000000       1.00000000 </v>
   <v name="shift">      0.00000000       0.00000000       0.00000000 </v>
  </generation>
  <varray name="kpointlist" >
   <v>       0.00000000       0.00000000       0.00000000 </v>
  </varray>
  <varray name="weights" >
   <v>       1.00000000 </v>
  </varray>
 </kpoints>
 <parameters>
  <separator name="general" >
   <i type="string" name="SYSTEM">VaspCalc</i>
   <i type="logical" name="LCOMPAT"> F  </i>
  </separator>
  <separator name="electronic" >
   <i type="string" name="PREC">med</i>
   <i name="ENMAX">    400.00000000</i>
   <i name="ENAUG">    605.39200000</i>
   <i name="EDIFF">      0.00000100</i>
   <i type="int" name="IALGO">    68</i>
   <i type="int" name="IWAVPR">    10</i>
   <i type="int" name="NBANDS">    36</i>
   <i name="NELECT">     48.00000000</i>
   <i type="int" name="TURBO">     0</i>
   <i type="int" name="IRESTART">     0</i>
   <i type="int" name="NREBOOT">     0</i>
   <i type="int" name="NMIN">     0</i>
   <i name="EREF">      0.00000000</i>
   <separator name="electronic smearing" >
    <i type="int" name="ISMEAR">     0</i>
    <i name="SIGMA">      0.10000000</i>
    <i name="KSPACING">      0.50000000</i>
    <i type="logical" name="KGAMMA"> T  </i>
   </separator>
   <separator name="electronic projectors" >
    <i type="logical" name="LREAL"> F  </i>
    <v name="ROPT">      0.00000000      0.00000000</v>
    <i type="int" name="LMAXPAW">  -100</i>
    <i type="int" name="LMAXMIX">     2</i>
    <i type="logical" name="NLSPLINE"> F  </i>
   </separator>
   <separator name="electronic startup" >
    <i type="int" name="ISTART">     0</i>
    <i type="int" name="ICHARG">     2</i>
    <i type="int" name="INIWAV">     1</i>
   </separator>
   <separator name="electronic spin" >
    <i type="int" name="ISPIN">     1</i>
    <i type="logical" name="LNONCOLLINEAR"> F  </i>
    <v name="MAGMOM">      1.00000000      1.00000000      1.00000000      1.00000000      1.00000000      1.00000000      1.00000000      1.00000000      1.00000000      1.00000000      1.00000000      1.00000000      1.00000000      1.00000000      1.00000000      1.00000000      1.00000000      1.00000000</v>
    <i name="NUPDOWN">     -1.00000000</i>
    <i type="logical" name="LSORBIT"> F  </i>
    <v name="SAXIS">      0.00000000      0.00000000      1.00000000</v>
    <i type="logical" name="LSPIRAL"> F  </i>
    <v name="QSPIRAL">      0.00000000      0.00000000      0.00000000</v>
    <i type="logical" name="LZEROZ"> F  </i>
   </separator>
   <separator name="electronic exchange-correlation" >
    <i type="logical" name="LASPH"> F  </i>
    <i type="logical" name="LMETAGGA"> F  </i>
   </separator>
   <separator name="electronic convergence" >
    <i type="int" name="NELM">   400</i>
    <i type="int" name="NELMDL">     0</i>
    <i type="int" name="NELMIN">     4</i>
    <i name="ENINI">    400.00000000</i>
    <separator name="electronic convergence detail" >
     <i type="logical" name="LDIAG"> T  </i>
     <i type="logical" name="LSUBROT"> F  </i>
     <i name="WEIMIN">      0.00000000</i>
     <i name="EBREAK">      0.00000001</i>
     <i name="DEPER">      0.30000000</i>
     <i type="int" name="NRMM">     4</i>
     <i name="TIME">      0.40000000</i>
    </separator>
   </separator>
   <separator name="electronic mixer" >
    <i name="AMIX">      0.40000000</i>
    <i name="BMIX">      1.00000000</i>
    <i name="AMIN">      0.10000000</i>
    <i name="AMIX_MAG">      1.60000000</i>
    <i name="BMIX_MAG">      1.00000000</i>
    <separator name="electronic mixer details" >
     <i type="int" name="IMIX">     4</i>
     <i type="logical" name="MIXFIRST"> F  </i>
     <i type="int" name="MAXMIX">   -45</i>
     <i name="WC">    100.00000000</i>
     <i type="int" name="INIMIX">     1</i>
     <i type="int" name="MIXPRE">     1</i>
     <i type="int" name="MREMOVE">     5</i>
    </separator>
   </separator>
   <separator name="electronic dipolcorrection" >
    <i type="logical" name="LDIPOL"> T  </i>
    <i type="logical" name="LMONO"> F  </i>
    <i type="int" name="IDIPOL">     4</i>
    <i name="EPSILON">      1.00000000</i>
    <v name="DIPOL">      0.50000000      0.50000000      0.50000000</v>
    <i name="EFIELD">      0.00000000</i>
   </separator>
  </separator>
  <separator name="grids" >
   <i type="int" name="NGX">    98</i>
   <i type="int" name="NGY">    98</i>
   <i type="int" name="NGZ">    98</i>
   <i type="int" name="NGXF">   160</i>
   <i type="int" name="NGYF">   160</i>
   <i type="int" name="NGZF">   160</i>
   <i type="logical" name="ADDGRID"> F  </i>
  </separator>
  <separator name="ionic" >
   <i type="int" name="NSW">   100</i>
   <i type="int" name="IBRION">    -1</i>
   <i type="int" name="MDALGO">     0</i>
   <i type="int" name="ISIF">     2</i>
   <i name="PSTRESS">      0.00000000</i>
   <i name="EDIFFG">      0.00001000</i>
   <i type="int" name="NFREE">     0</i>
   <i name="POTIM">      0.50000000</i>
   <i name="SMASS">     -3.00000000</i>
   <i name="SCALEE">      1.00000000</i>
  </separator>
  <separator name="ionic md" >
   <i name="TEBEG">      0.00010000</i>
   <i name="TEEND">      0.00010000</i>
   <i type="int" name="NBLOCK">     1</i>
   <i type="int" name="KBLOCK">   100</i>
   <i type="int" name="NPACO">   256</i>
   <i name="APACO">     16.00000000</i>
  </separator>
  <separator name="symmetry" >
   <i type="int" name="ISYM">     2</i>
   <i name="SYMPREC">      0.00001000</i>
  </separator>
  <separator name="dos" >
   <i type="int" name="LORBIT">    11</i>
   <v name="RWIGS">     -1.00000000     -1.00000000</v>
   <i type="int" name="NEDOS">   301</i>
   <i name="EMIN">     10.00000000</i>
   <i name="EMAX">    -10.00000000</i>
   <i name="EFERMI">      0.00000000</i>
  </separator>
  <separator name="writing" >
   <i type="int" name="NWRITE">     1</i>
   <i type="logical" name="LWAVE"> F  </i>
   <i type="logical" name="LDOWNSAMPLE"> F  </i>
   <i type="logical" name="LCHARG"> F  </i>
   <i type="logical" name="LPARD"> F  </i>
   <i type="logical" name="LVTOT"> F  </i>
   <i type="logical" name="LVHAR"> F  </i>
   <i type="logical" name="LELF"> F  </i>
   <i type="logical" name="LOPTICS"> F  </i>
   <v name="STM">      0.00000000      0.00000000      0.00000000      0.00000000      0.00000000      0.00000000      0.00000000</v>
  </separator>
  <separator name="performance" >
   <i type="int" name="NPAR">     4</i>
   <i type="int" name="NSIM">     4</i>
   <i type="int" name="NBLK">    -1</i>
   <i type="logical" name="LPLANE"> T  </i>
   <i type="logical" name="LSCALAPACK"> T  </i>
   <i type="logical" name="LSCAAWARE"> F  </i>
   <i type="logical" name="LSCALU"> F  </i>
   <i type="logical" name="LASYNC"> F  </i>
   <i type="logical" name="LORBITALREAL"> F  </i>
  </separator>
  <separator name="miscellaneous" >
   <i type="int" name="IDIOT">     3</i>
   <i type="int" name="ISPECIAL">     0</i>
   <i type="logical" name="LMUSIC"> F  </i>
   <v name="POMASS">      1.00000000     16.00000000</v>
   <v name="DARWINR">      0.00000000      0.00000000</v>
   <v name="DARWINV">      1.00000000      1.00000000</v>
   <i type="logical" name="LCORR"> T  </i>
  </separator>
  <i type="logical" name="GGA_COMPAT"> T  </i>
  <i type="logical" name="LBERRY"> F  </i>
  <i type="int" name="ICORELEVEL">     0</i>
  <i type="logical" name="LDAU"> F  </i>
  <i type="int" name="I_CONSTRAINED_M">     0</i>
  <separator name="electronic exchange-correlation" >
   <i type="string" name="GGA">--</i>
   <i type="int" name="VOSKOWN">     0</i>
   <i type="logical" name="LHFCALC"> F  </i>
   <i type="string" name="PRECFOCK"></i>
   <i type="logical" name="LSYMGRAD"> F  </i>
   <i type="logical" name="LHFONE"> F  </i>
   <i type="logical" name="LRHFCALC"> F  </i>
   <i type="logical" name="LTHOMAS"> F  </i>
   <i type="logical" name="LMODELHF"> F  </i>
   <i name="ENCUT4O">     -1.00000000</i>
   <i type="int" name="EXXOEP">     0</i>
   <i type="int" name="FOURORBIT">     0</i>
   <i name="AEXX">      0.00000000</i>
   <i name="HFALPHA">      0.00000000</i>
   <i name="MCALPHA">      0.00000000</i>
   <i name="ALDAX">      1.00000000</i>
   <i name="AGGAX">      1.00000000</i>
   <i name="ALDAC">      1.00000000</i>
   <i name="AGGAC">      1.00000000</i>
   <i type="int" name="NKREDX">     1</i>
   <i type="int" name="NKREDY">     1</i>
   <i type="int" name="NKREDZ">     1</i>
   <i type="logical" name="SHIFTRED"> F  </i>
   <i type="logical" name="ODDONLY"> F  </i>
   <i type="logical" name="EVENONLY"> F  </i>
   <i type="int" name="LMAXFOCK">     0</i>
   <i type="int" name="NMAXFOCKAE">     0</i>
   <i type="logical" name="LFOCKAEDFT"> F  </i>
   <i name="HFSCREEN">      0.00000000</i>
   <i name="HFSCREENC">      0.00000000</i>
   <i type="int" name="NBANDSGWLOW">     0</i>
  </separator>
  <separator name="vdW DFT" >
   <i type="logical" name="LUSE_VDW"> F  </i>
   <i name="Zab_VDW">     -0.84910000</i>
   <i name="PARAM1">      0.12340000</i>
   <i name="PARAM2">      1.00000000</i>
   <i name="PARAM3">      0.00000000</i>
  </separator>
  <separator name="model GW" >
   <i type="int" name="MODEL_GW">     0</i>
   <i name="MODEL_EPS0">    266.66666667</i>
   <i name="MODEL_ALPHA">      1.00000000</i>
  </separator>
  <separator name="linear response parameters" >
   <i type="logical" name="LEPSILON"> F  </i>
   <i type="logical" name="LRPA"> F  </i>
   <i type="logical" name="LNABLA"> F  </i>
   <i type="logical" name="LVEL"> F  </i>
   <i type="int" name="KINTER">     0</i>
   <i name="CSHIFT">      0.10000000</i>
   <i name="OMEGAMAX">     -1.00000000</i>
   <i name="DEG_THRESHOLD">      0.00200000</i>
   <i name="RTIME">     -0.10000000</i>
   <i name="WPLASMAI">      0.00000000</i>
   <v name="DFIELD">      0.00000000      0.00000000      0.00000000</v>
   <v name="WPLASMA">      0.00000000      0.00000000      0.00000000      0.00000000      0.00000000      0.00000000      0.00000000      0.00000000      0.00000000</v>
  </separator>
  <separator name="orbital magnetization" >
   <i type="logical" name="NUCIND"> F  </i>
   <v name="MAGPOS">      0.00000000      0.00000000      0.00000000</v>
   <i type="logical" name="LNICSALL"> T  </i>
   <i type="logical" name="ORBITALMAG"> F  </i>
   <i type="logical" name="LMAGBLOCH"> F  </i>
   <i type="logical" name="LCHIMAG"> F  </i>
   <i type="logical" name="LGAUGE"> T  </i>
   <i type="int" name="MAGATOM">     0</i>
   <v name="MAGDIPOL">      0.00000000      0.00000000      0.00000000</v>
   <v name="AVECCONST">      0.00000000      0.00000000      0.00000000</v>
  </separator>
  <separator name="response functions" >
   <i type="logical" name="LADDER"> F  </i>
   <i type="logical" name="LRPAFORCE"> F  </i>
   <i type="logical" name="LFXC"> F  </i>
   <i type="logical" name="LHARTREE"> T  </i>
   <i type="int" name="IBSE">     0</i>
   <v type="int" name="KPOINT">    -1     0     0     0</v>
   <i type="logical" name="LTCTE"> F  </i>
   <i type="logical" name="LTETE"> F  </i>
   <i type="logical" name="LTRIPLET"> F  </i>
   <i type="logical" name="LFXCEPS"> F  </i>
   <i type="logical" name="LFXHEG"> F  </i>
   <i type="int" name="NATURALO">     2</i>
   <i type="logical" name="L2ORDER"> F  </i>
   <i type="logical" name="LMP2LT"> F  </i>
   <i type="logical" name="LUSEW"> F  </i>
   <i name="ENCUTGW">     -2.00000000</i>
   <i name="ENCUTGWSOFT">     -2.00000000</i>
   <i name="ENCUTLF">     -1.00000000</i>
   <i type="int" name="LMAXMP2">    -1</i>
   <i name="SCISSOR">      0.00000000</i>
   <i type="int" name="NOMEGA">     0</i>
   <i type="int" name="NOMEGAR">     0</i>
   <i type="int" name="NBANDSGW">    -1</i>
   <i type="int" name="NBANDSO">    -1</i>
   <i type="int" name="NBANDSV">    -1</i>
   <i type="int" name="NELM">   400</i>
   <i type="int" name="NELMHF">     1</i>
   <i type="int" name="DIM">     3</i>
   <i type="int" name="ANTIRES">     0</i>
   <i name="OMEGAMAX">    -30.00000000</i>
   <i name="OMEGAMIN">    -30.00000000</i>
   <i name="OMEGATL">   -200.00000000</i>
   <i type="int" name="OMEGAGRID">   140</i>
   <i name="CSHIFT">     -0.10000000</i>
   <i type="logical" name="SELFENERGY"> F  </i>
   <i type="logical" name="LSPECTRAL"> F  </i>
   <i type="logical" name="LSPECTRALGW"> F  </i>
   <i type="logical" name="LSINGLES"> F  </i>
   <i type="logical" name="LFERMIGW"> F  </i>
   <i type="logical" name="ODDONLYGW"> F  </i>
   <i type="logical" name="EVENONLYGW"> F  </i>
   <i type="int" name="NKREDLFX">     1</i>
   <i type="int" name="NKREDLFY">     1</i>
   <i type="int" name="NKREDLFZ">     1</i>
   <i type="int" name="MAXMEM">  2800</i>
   <i type="int" name="TELESCOPE">     0</i>
   <i type="int" name="TAUPAR">     1</i>
   <i type="int" name="OMEGAPAR">    -1</i>
   <i name="LAMBDA">      1.00000000</i>
  </separator>
  <separator name="External order field" >
   <i name="OFIELD_KAPPA">      0.00000000</i>
   <v name="OFIELD_K">      0.00000000      0.00000000      0.00000000</v>
   <i name="OFIELD_Q6_NEAR">      0.00000000</i>
   <i name="OFIELD_Q6_FAR">      0.00000000</i>
   <i name="OFIELD_A">      0.00000000</i>
  </separator>
 </parameters>
 <atominfo>
  <atoms>      18 </atoms>
  <types>       2 </types>
  <array name="atoms" >
   <dimension dim="1">ion</dimension>
   <field type="string">element</field>
   <field type="int">atomtype</field>
   <set>
    <rc><c>H </c><c>   1</c></rc>
    <rc><c>H </c><c>   1</c></rc>
    <rc><c>H </c><c>   1</c></rc>
    <rc><c>H </c><c>   1</c></rc>
    <rc><c>H </c><c>   1</c></rc>
    <rc><c>H </c><c>   1</c></rc>
    <rc><c>H </c><c>   1</c></rc>
    <rc><c>H </c><c>   1</c></rc>
    <rc><c>H </c><c>   1</c></rc>
    <rc><c>H </c><c>   1</c></rc>
    <rc><c>H </c><c>   1</c></rc>
    <rc><c>H </c><c>   1</c></rc>
    <rc><c>O </c><c>   2</c></rc>
    <rc><c>O </c><c>   2</c></rc>
    <rc><c>O </c><c>   2</c></rc>
    <rc><c>O </c><c>   2</c></rc>
    <rc><c>O </c><c>   2</c></rc>
    <rc><c>O </c><c>   2</c></rc>
   </set>
  </array>
  <array name="atomtypes" >
   <dimension dim="1">type</dimension>
   <field type="int">atomspertype</field>
   <field type="string">element</field>
   <field>mass</field>
   <field>valence</field>
   <field type="string">pseudopotential</field>
   <set>
    <rc><c>  12</c><c>H </c><c>      1.00000000</c><c>      1.00000000</c><c>  PAW_PBE H 15Jun2001                   </c></rc>
    <rc><c>   6</c><c>O </c><c>     16.00000000</c><c>      6.00000000</c><c>  PAW_PBE O 08Apr2002                   </c></rc>
   </set>
  </array>
 </atominfo>
 <structure name="initialpos" >
  <crystal>
   <varray name="basis" >
    <v>      20.00000000       0.00000000       0.00000000 </v>
    <v>       0.00000000      20.00000000       0.00000000 </v>
    <v>       0.00000000       0.00000000      20.00000000 </v>
   </varray>
   <i name="volume">   8000.00000000 </i>
   <varray name="rec_basis" >
    <v>       0.05000000       0.00000000       0.00000000 </v>
    <v>       0.00000000       0.05000000       0.00000000 </v>
    <v>       0.00000000       0.00000000       0.05000000 </v>
   </varray>
  </crystal>
  <varray name="positions" >
   <v>       0.51696044       0.48231771       0.42450384 </v>
   <v>       0.58250409       0.51749296       0.44267829 </v>
   <v>       0.50958844       0.51448731       0.57599144 </v>
   <v>       0.50881759       0.44253796       0.55194014 </v>
   <v>       0.61067104       0.48867021       0.54297044 </v>
   <v>       0.68202664       0.47599011       0.51539879 </v>
   <v>       0.41832169       0.43807436       0.47809879 </v>
   <v>       0.44818364       0.37077486       0.45331244 </v>
   <v>       0.32000000       0.49750456       0.53770659 </v>
   <v>       0.39097829       0.53815556       0.50631739 </v>
   <v>       0.49542619       0.56961846       0.47781379 </v>
   <v>       0.47029514       0.63315261       0.51581875 </v>
   <v>       0.53931234       0.52526726       0.42129739 </v>
   <v>       0.53148534       0.47185586       0.58328284 </v>
   <v>       0.64368714       0.50445581       0.51036774 </v>
   <v>       0.46046439       0.41406651       0.47018254 </v>
   <v>       0.36007474       0.50112251       0.49787849 </v>
   <v>       0.46704339       0.58519926       0.51557024 </v>
  </varray>
  <varray name="velocities" >
   <v>       0.00000000       0.00000000       0.00000000 </v>
   <v>       0.00000000       0.00000000       0.00000000 </v>
   <v>       0.00000000       0.00000000       0.00000000 </v>
   <v>       0.00000000       0.00000000       0.00000000 </v>
   <v>       0.00000000       0.00000000       0.00000000 </v>
   <v>       0.00000000       0.00000000       0.00000000 </v>
   <v>       0.00000000       0.00000000       0.00000000 </v>
   <v>       0.00000000       0.00000000       0.00000000 </v>
   <v>       0.00000000       0.00000000       0.00000000 </v>
   <v>       0.00000000       0.00000000       0.00000000 </v>
   <v>       0.00000000       0.00000000       0.00000000 </v>
   <v>       0.00000000       0.00000000       0.00000000 </v>
   <v>       0.00000000       0.00000000       0.00000000 </v>
   <v>       0.00000000       0.00000000       0.00000000 </v>
   <v>       0.00000000       0.00000000       0.00000000 </v>
   <v>       0.00000000       0.00000000       0.00000000 </v>
   <v>       0.00000000       0.00000000       0.00000000 </v>
   <v>       0.00000000       0.00000000       0.00000000 </v>
  </varray>
 </structure>
 <calculation>
  <scstep>
   <time name="dav">    0.57    0.57</time>
   <time name="total">    0.69    0.69</time>
   <dipole>
    <v name="dipole">      0.00000282       0.00000082      -0.00000082 </v>
    <i name="Tr[quadrupol]">     26.40803677 </i>
    <i name="Echarged">      0.00000000 </i>
    <i name="Edipol_quadrupol">      0.00000000 </i>
    <i name="Eion">      0.00000000 </i>
   </dipole>
   <energy>
    <i name="alphaZ">      1.00913064 </i>
    <i name="ewald">   3088.91719270 </i>
    <i name="hartreedc">  -5244.53645835 </i>
    <i name="XCdc">    195.01756129 </i>
    <i name="pawpsdc">   2104.90519057 </i>
    <i name="pawaedc">  -2115.80374798 </i>
    <i name="eentropy">     -0.11486492 </i>
    <i name="bandstr">   -255.31467205 </i>
    <i name="atom">   2743.32276819 </i>
    <i name="e_fr_energy">    517.40210010 </i>
    <i name="e_wo_entrp">    517.51696502 </i>
    <i name="e_0_energy">    517.45953256 </i>
   </energy>
  </scstep>
  <scstep>
   <time name="dav">    0.78    0.78</time>
   <time name="total">    0.78    0.78</time>
   <dipole>
    <v name="dipole">      0.00000282       0.00000082      -0.00000082 </v>
    <i name="Tr[quadrupol]">     26.40803677 </i>
    <i name="Echarged">      0.00000000 </i>
    <i name="Edipol_quadrupol">      0.00000000 </i>
    <i name="Eion">      0.00000000 </i>
   </dipole>
   <energy>
    <i name="e_fr_energy">    227.92342553 </i>
    <i name="e_wo_entrp">    227.93768079 </i>
    <i name="e_0_energy">    227.93055316 </i>
   </energy>
  </scstep>
  <scstep>
   <time name="dav">    0.72    0.72</time>
   <time name="total">    0.72    0.72</time>
   <dipole>
    <v name="dipole">      0.00000282       0.00000082      -0.00000082 </v>
    <i name="Tr[quadrupol]">     26.40803677 </i>
    <i name="Echarged">      0.00000000 </i>
    <i name="Edipol_quadrupol">      0.00000000 </i>
    <i name="Eion">      0.00000000 </i>
   </dipole>
   <energy>
    <i name="e_fr_energy">    -39.86969764 </i>
    <i name="e_wo_entrp">    -39.86969764 </i>
    <i name="e_0_energy">    -39.86969764 </i>
   </energy>
  </scstep>
  <scstep>
   <time name="dav">    0.55    0.55</time>
   <time name="total">    0.55    0.55</time>
   <dipole>
    <v name="dipole">      0.00000282       0.00000082      -0.00000082 </v>
    <i name="Tr[quadrupol]">     26.40803677 </i>
    <i name="Echarged">      0.00000000 </i>
    <i name="Edipol_quadrupol">      0.00000000 </i>
    <i name="Eion">      0.00000000 </i>
   </dipole>
   <energy>
    <i name="e_fr_energy">    -95.57707796 </i>
    <i name="e_wo_entrp">    -95.57707796 </i>
    <i name="e_0_energy">    -95.57707796 </i>
   </energy>
  </scstep>
  <scstep>
   <time name="dav">    0.57    0.57</time>
   <time name="total">    0.61    0.61</time>
   <dipole>
    <v name="dipole">      0.00000282       0.00000082      -0.00000082 </v>
    <i name="Tr[quadrupol]">     26.40803677 </i>
    <i name="Echarged">      0.00000000 </i>
    <i name="Edipol_quadrupol">      0.00000000 </i>
    <i name="Eion">      0.00000000 </i>
   </dipole>
   <energy>
    <i name="e_fr_energy">    -96.70274653 </i>
    <i name="e_wo_entrp">    -96.70274653 </i>
    <i name="e_0_energy">    -96.70274653 </i>
   </energy>
  </scstep>
  <scstep>
   <time name="diag">    0.09    0.09</time>
   <time name="diis">    0.59    0.59</time>
   <time name="orth">    0.01    0.01</time>
   <time name="total">    0.84    0.84</time>
   <dipole>
    <v name="dipole">      0.07026303       0.04615563      -0.03619912 </v>
    <i name="Tr[quadrupol]">     24.79855507 </i>
    <i name="Echarged">      0.00000000 </i>
    <i name="Edipol_quadrupol">      0.00000000 </i>
    <i name="Eion">      0.00000000 </i>
   </dipole>
   <energy>
    <i name="e_fr_energy">    -87.55219058 </i>
    <i name="e_wo_entrp">    -87.55219058 </i>
    <i name="e_0_energy">    -87.55219058 </i>
   </energy>
  </scstep>
  <scstep>
   <time name="diag">    0.09    0.09</time>
   <time name="diis">    0.61    0.61</time>
   <time name="orth">    0.01    0.01</time>
   <time name="total">    0.85    0.85</time>
   <dipole>
    <v name="dipole">      0.11931868       0.07452130      -0.05344465 </v>
    <i name="Tr[quadrupol]">     23.78237416 </i>
    <i name="Echarged">      0.00000000 </i>
    <i name="Edipol_quadrupol">      0.00000000 </i>
    <i name="Eion">      0.00000000 </i>
   </dipole>
   <energy>
    <i name="e_fr_energy">    -87.17596396 </i>
    <i name="e_wo_entrp">    -87.17596396 </i>
    <i name="e_0_energy">    -87.17596396 </i>
   </energy>
  </scstep>
  <scstep>
   <time name="diag">    0.09    0.09</time>
   <time name="diis">    0.60    0.60</time>
   <time name="orth">    0.01    0.01</time>
   <time name="total">    0.84    0.84</time>
   <dipole>
    <v name="dipole">      0.20760272       0.12267955      -0.08110458 </v>
    <i name="Tr[quadrupol]">     22.00180691 </i>
    <i name="Echarged">      0.00000000 </i>
    <i name="Edipol_quadrupol">      0.00000000 </i>
    <i name="Eion">      0.00000000 </i>
   </dipole>
   <energy>
    <i name="e_fr_energy">    -86.92609700 </i>
    <i name="e_wo_entrp">    -86.92609700 </i>
    <i name="e_0_energy">    -86.92609700 </i>
   </energy>
  </scstep>
  <scstep>
   <time name="diag">    0.09    0.09</time>
   <time name="diis">    0.59    0.59</time>
   <time name="orth">    0.01    0.01</time>
   <time name="total">    0.84    0.84</time>
   <dipole>
    <v name="dipole">      0.24214055       0.14162078      -0.09224865 </v>
    <i name="Tr[quadrupol]">     21.26522492 </i>
    <i name="Echarged">      0.00000000 </i>
    <i name="Edipol_quadrupol">      0.00000000 </i>
    <i name="Eion">      0.00000000 </i>
   </dipole>
   <energy>
    <i name="e_fr_energy">    -86.89300103 </i>
    <i name="e_wo_entrp">    -86.89300103 </i>
    <i name="e_0_energy">    -86.89300103 </i>
   </energy>
  </scstep>
  <scstep>
   <time name="diag">    0.09    0.09</time>
   <time name="diis">    0.56    0.56</time>
   <time name="orth">    0.01    0.01</time>
   <time name="total">    0.80    0.80</time>
   <dipole>
    <v name="dipole">      0.29304588       0.16869385      -0.10592400 </v>
    <i name="Tr[quadrupol]">     20.14885000 </i>
    <i name="Echarged">      0.00000000 </i>
    <i name="Edipol_quadrupol">      0.00000000 </i>
    <i name="Eion">      0.00000000 </i>
   </dipole>
   <energy>
    <i name="e_fr_energy">    -86.88936240 </i>
    <i name="e_wo_entrp">    -86.88936240 </i>
    <i name="e_0_energy">    -86.88936240 </i>
   </energy>
  </scstep>
  <scstep>
   <time name="diag">    0.09    0.09</time>
   <time name="diis">    0.56    0.56</time>
   <time name="orth">    0.01    0.01</time>
   <time name="total">    0.81    0.81</time>
   <dipole>
    <v name="dipole">      0.32315837       0.18475548      -0.11417478 </v>
    <i name="Tr[quadrupol]">     19.42947636 </i>
    <i name="Echarged">      0.00000000 </i>
    <i name="Edipol_quadrupol">      0.00000000 </i>
    <i name="Eion">      0.00000000 </i>
   </dipole>
   <energy>
    <i name="e_fr_energy">    -86.89046225 </i>
    <i name="e_wo_entrp">    -86.89046225 </i>
    <i name="e_0_energy">    -86.89046225 </i>
   </energy>
  </scstep>
  <scstep>
   <time name="diag">    0.09    0.09</time>
   <time name="diis">    0.53    0.53</time>
   <time name="orth">    0.01    0.01</time>
   <time name="total">    0.78    0.78</time>
   <dipole>
    <v name="dipole">      0.35866477       0.20401353      -0.12413227 </v>
    <i name="Tr[quadrupol]">     18.39963926 </i>
    <i name="Echarged">      0.00000000 </i>
    <i name="Edipol_quadrupol">      0.00000000 </i>
    <i name="Eion">      0.00000000 </i>
   </dipole>
   <energy>
    <i name="e_fr_energy">    -86.90451451 </i>
    <i name="e_wo_entrp">    -86.90451451 </i>
    <i name="e_0_energy">    -86.90451451 </i>
   </energy>
  </scstep>
  <scstep>
   <time name="diag">    0.09    0.09</time>
   <time name="diis">    0.56    0.56</time>
   <time name="orth">    0.01    0.01</time>
   <time name="total">    0.80    0.80</time>
   <dipole>
    <v name="dipole">      0.36731226       0.20870031      -0.12619430 </v>
    <i name="Tr[quadrupol]">     18.03680213 </i>
    <i name="Echarged">      0.00000000 </i>
    <i name="Edipol_quadrupol">      0.00000000 </i>
    <i name="Eion">      0.00000000 </i>
   </dipole>
   <energy>
    <i name="e_fr_energy">    -86.91161907 </i>
    <i name="e_wo_entrp">    -86.91161907 </i>
    <i name="e_0_energy">    -86.91161907 </i>
   </energy>
  </scstep>
  <scstep>
   <time name="diag">    0.09    0.09</time>
   <time name="diis">    0.54    0.54</time>
   <time name="orth">    0.01    0.01</time>
   <time name="total">    0.79    0.79</time>
   <dipole>
    <v name="dipole">      0.37233527       0.21142670      -0.12738119 </v>
    <i name="Tr[quadrupol]">     17.76997661 </i>
    <i name="Echarged">      0.00000000 </i>
    <i name="Edipol_quadrupol">      0.00000000 </i>
    <i name="Eion">      0.00000000 </i>
   </dipole>
   <energy>
    <i name="e_fr_energy">    -86.91675676 </i>
    <i name="e_wo_entrp">    -86.91675676 </i>
    <i name="e_0_energy">    -86.91675676 </i>
   </energy>
  </scstep>
  <scstep>
   <time name="diag">    0.10    0.10</time>
   <time name="diis">    0.51    0.51</time>
   <time name="orth">    0.01    0.01</time>
   <time name="total">    0.76    0.76</time>
   <dipole>
    <v name="dipole">      0.37549422       0.21312627      -0.12826368 </v>
    <i name="Tr[quadrupol]">     17.58988224 </i>
    <i name="Echarged">      0.00000000 </i>
    <i name="Edipol_quadrupol">      0.00000000 </i>
    <i name="Eion">      0.00000000 </i>
   </dipole>
   <energy>
    <i name="e_fr_energy">    -86.91963935 </i>
    <i name="e_wo_entrp">    -86.91963935 </i>
    <i name="e_0_energy">    -86.91963935 </i>
   </energy>
  </scstep>
  <scstep>
   <time name="diag">    0.09    0.09</time>
   <time name="diis">    0.53    0.53</time>
   <time name="orth">    0.01    0.01</time>
   <time name="total">    0.78    0.78</time>
   <dipole>
    <v name="dipole">      0.37782943       0.21429029      -0.12889771 </v>
    <i name="Tr[quadrupol]">     17.45997365 </i>
    <i name="Echarged">      0.00000000 </i>
    <i name="Edipol_quadrupol">      0.00000000 </i>
    <i name="Eion">      0.00000000 </i>
   </dipole>
   <energy>
    <i name="e_fr_energy">    -86.92132888 </i>
    <i name="e_wo_entrp">    -86.92132888 </i>
    <i name="e_0_energy">    -86.92132888 </i>
   </energy>
  </scstep>
  <scstep>
   <time name="diag">    0.09    0.09</time>
   <time name="diis">    0.56    0.56</time>
   <time name="orth">    0.01    0.01</time>
   <time name="total">    0.81    0.81</time>
   <dipole>
    <v name="dipole">      0.37942796       0.21514238      -0.12938300 </v>
    <i name="Tr[quadrupol]">     17.40725183 </i>
    <i name="Echarged">      0.00000000 </i>
    <i name="Edipol_quadrupol">      0.00000000 </i>
    <i name="Eion">      0.00000000 </i>
   </dipole>
   <energy>
    <i name="e_fr_energy">    -86.92177738 </i>
    <i name="e_wo_entrp">    -86.92177738 </i>
    <i name="e_0_energy">    -86.92177738 </i>
   </energy>
  </scstep>
  <scstep>
   <time name="diag">    0.10    0.10</time>
   <time name="diis">    0.54    0.54</time>
   <time name="orth">    0.01    0.01</time>
   <time name="total">    0.78    0.79</time>
   <dipole>
    <v name="dipole">      0.38091933       0.21597428      -0.12983315 </v>
    <i name="Tr[quadrupol]">     17.37476799 </i>
    <i name="Echarged">      0.00000000 </i>
    <i name="Edipol_quadrupol">      0.00000000 </i>
    <i name="Eion">      0.00000000 </i>
   </dipole>
   <energy>
    <i name="e_fr_energy">    -86.92206063 </i>
    <i name="e_wo_entrp">    -86.92206063 </i>
    <i name="e_0_energy">    -86.92206063 </i>
   </energy>
  </scstep>
  <scstep>
   <time name="diag">    0.09    0.09</time>
   <time name="diis">    0.55    0.55</time>
   <time name="orth">    0.01    0.01</time>
   <time name="total">    0.81    0.81</time>
   <dipole>
    <v name="dipole">      0.38229504       0.21678264      -0.13027450 </v>
    <i name="Tr[quadrupol]">     17.35176058 </i>
    <i name="Echarged">      0.00000000 </i>
    <i name="Edipol_quadrupol">      0.00000000 </i>
    <i name="Eion">      0.00000000 </i>
   </dipole>
   <energy>
    <i name="e_fr_energy">    -86.92222157 </i>
    <i name="e_wo_entrp">    -86.92222157 </i>
    <i name="e_0_energy">    -86.92222157 </i>
   </energy>
  </scstep>
  <scstep>
   <time name="diag">    0.09    0.09</time>
   <time name="diis">    0.44    0.44</time>
   <time name="orth">    0.01    0.01</time>
   <time name="total">    0.69    0.69</time>
   <dipole>
    <v name="dipole">      0.38302922       0.21725428      -0.13052942 </v>
    <i name="Tr[quadrupol]">     17.34161699 </i>
    <i name="Echarged">      0.00000000 </i>
    <i name="Edipol_quadrupol">      0.00000000 </i>
    <i name="Eion">      0.00000000 </i>
   </dipole>
   <energy>
    <i name="e_fr_energy">    -86.92227822 </i>
    <i name="e_wo_entrp">    -86.92227822 </i>
    <i name="e_0_energy">    -86.92227822 </i>
   </energy>
  </scstep>
  <scstep>
   <time name="diag">    0.09    0.09</time>
   <time name="diis">    0.42    0.42</time>
   <time name="orth">    0.01    0.01</time>
   <time name="total">    0.68    0.68</time>
   <dipole>
    <v name="dipole">      0.38394093       0.21789548      -0.13087103 </v>
    <i name="Tr[quadrupol]">     17.33255874 </i>
    <i name="Echarged">      0.00000000 </i>
    <i name="Edipol_quadrupol">      0.00000000 </i>
    <i name="Eion">      0.00000000 </i>
   </dipole>
   <energy>
    <i name="e_fr_energy">    -86.92232244 </i>
    <i name="e_wo_entrp">    -86.92232244 </i>
    <i name="e_0_energy">    -86.92232244 </i>
   </energy>
  </scstep>
  <scstep>
   <time name="diag">    0.09    0.09</time>
   <time name="diis">    0.43    0.43</time>
   <time name="orth">    0.01    0.01</time>
   <time name="total">    0.68    0.68</time>
   <dipole>
    <v name="dipole">      0.38419507       0.21809766      -0.13097708 </v>
    <i name="Tr[quadrupol]">     17.33056294 </i>
    <i name="Echarged">      0.00000000 </i>
    <i name="Edipol_quadrupol">      0.00000000 </i>
    <i name="Eion">      0.00000000 </i>
   </dipole>
   <energy>
    <i name="e_fr_energy">    -86.92233103 </i>
    <i name="e_wo_entrp">    -86.92233103 </i>
    <i name="e_0_energy">    -86.92233103 </i>
   </energy>
  </scstep>
  <scstep>
   <time name="diag">    0.09    0.09</time>
   <time name="diis">    0.38    0.38</time>
   <time name="orth">    0.01    0.01</time>
   <time name="total">    0.64    0.64</time>
   <dipole>
    <v name="dipole">      0.38440515       0.21827890      -0.13107097 </v>
    <i name="Tr[quadrupol]">     17.32900084 </i>
    <i name="Echarged">      0.00000000 </i>
    <i name="Edipol_quadrupol">      0.00000000 </i>
    <i name="Eion">      0.00000000 </i>
   </dipole>
   <energy>
    <i name="e_fr_energy">    -86.92233671 </i>
    <i name="e_wo_entrp">    -86.92233671 </i>
    <i name="e_0_energy">    -86.92233671 </i>
   </energy>
  </scstep>
  <scstep>
   <time name="diag">    0.09    0.09</time>
   <time name="diis">    0.37    0.37</time>
   <time name="orth">    0.01    0.01</time>
   <time name="total">    0.62    0.62</time>
   <dipole>
    <v name="dipole">      0.38453423       0.21840276      -0.13113368 </v>
    <i name="Tr[quadrupol]">     17.32796876 </i>
    <i name="Echarged">      0.00000000 </i>
    <i name="Edipol_quadrupol">      0.00000000 </i>
    <i name="Eion">      0.00000000 </i>
   </dipole>
   <energy>
    <i name="e_fr_energy">    -86.92233962 </i>
    <i name="e_wo_entrp">    -86.92233962 </i>
    <i name="e_0_energy">    -86.92233962 </i>
   </energy>
  </scstep>
  <scstep>
   <time name="diag">    0.10    0.10</time>
   <time name="diis">    0.39    0.39</time>
   <time name="orth">    0.01    0.01</time>
   <time name="total">    0.66    0.66</time>
   <dipole>
    <v name="dipole">      0.38456895       0.21844307      -0.13115397 </v>
    <i name="Tr[quadrupol]">     17.32762024 </i>
    <i name="Echarged">      0.00000000 </i>
    <i name="Edipol_quadrupol">      0.00000000 </i>
    <i name="Eion">      0.00000000 </i>
   </dipole>
   <energy>
    <i name="e_fr_energy">    -86.92234074 </i>
    <i name="e_wo_entrp">    -86.92234074 </i>
    <i name="e_0_energy">    -86.92234074 </i>
   </energy>
  </scstep>
  <scstep>
   <time name="diag">    0.09    0.09</time>
   <time name="diis">    0.34    0.34</time>
   <time name="orth">    0.01    0.01</time>
   <time name="total">    0.60    0.60</time>
   <dipole>
    <v name="dipole">      0.38460807       0.21849179      -0.13117866 </v>
    <i name="Tr[quadrupol]">     17.32722056 </i>
    <i name="Echarged">      0.00000000 </i>
    <i name="Edipol_quadrupol">      0.00000000 </i>
    <i name="Eion">      0.00000000 </i>
   </dipole>
   <energy>
    <i name="e_fr_energy">    -86.92234229 </i>
    <i name="e_wo_entrp">    -86.92234229 </i>
    <i name="e_0_energy">    -86.92234229 </i>
   </energy>
  </scstep>
  <scstep>
   <time name="diag">    0.09    0.09</time>
   <time name="diis">    0.39    0.39</time>
   <time name="orth">    0.01    0.01</time>
   <time name="total">    0.60    0.60</time>
   <dipole>
    <v name="dipole">      0.38463342       0.21852275      -0.13119437 </v>
    <i name="Tr[quadrupol]">     17.32698418 </i>
    <i name="Echarged">      0.00000000 </i>
    <i name="Edipol_quadrupol">      0.00000000 </i>
    <i name="Eion">      0.00000000 </i>
   </dipole>
   <energy>
    <i name="alphaZ">      1.01120712 </i>
    <i name="ewald">   3088.91719270 </i>
    <i name="hartreedc">  -5456.83462838 </i>
    <i name="XCdc">    205.14226113 </i>
    <i name="pawpsdc">   3375.21545678 </i>
    <i name="pawaedc">  -3387.78663202 </i>
    <i name="eentropy">     -0.00000000 </i>
    <i name="bandstr">   -655.90996864 </i>
    <i name="atom">   2743.32276819 </i>
    <i name="e_fr_energy">    -86.92234311 </i>
    <i name="e_wo_entrp">    -86.92234311 </i>
    <i name="e_0_energy">    -86.92234311 </i>
   </energy>
  </scstep>
  <structure>
   <crystal>
    <varray name="basis" >
     <v>      20.00000118       0.00000000       0.00000000 </v>
     <v>       0.00000000      20.00000118       0.00000000 </v>
     <v>       0.00000000       0.00000000      20.00000118 </v>
    </varray>
    <i name="volume">   8000.00141508 </i>
    <varray name="rec_basis" >
     <v>       0.05000000      -0.00000000      -0.00000000 </v>
     <v>       0.00000000       0.05000000      -0.00000000 </v>
     <v>       0.00000000       0.00000000       0.05000000 </v>
    </varray>
   </crystal>
   <varray name="positions" >
    <v>       0.51696044       0.48231771       0.42450384 </v>
    <v>       0.58250409       0.51749296       0.44267829 </v>
    <v>       0.50958844       0.51448731       0.57599144 </v>
    <v>       0.50881759       0.44253796       0.55194014 </v>
    <v>       0.61067104       0.48867021       0.54297044 </v>
    <v>       0.68202664       0.47599011       0.51539879 </v>
    <v>       0.41832169       0.43807436       0.47809879 </v>
    <v>       0.44818364       0.37077486       0.45331244 </v>
    <v>       0.32000000       0.49750456       0.53770659 </v>
    <v>       0.39097829       0.53815556       0.50631739 </v>
    <v>       0.49542619       0.56961846       0.47781379 </v>
    <v>       0.47029514       0.63315261       0.51581875 </v>
    <v>       0.53931234       0.52526726       0.42129739 </v>
    <v>       0.53148534       0.47185586       0.58328284 </v>
    <v>       0.64368714       0.50445581       0.51036774 </v>
    <v>       0.46046439       0.41406651       0.47018254 </v>
    <v>       0.36007474       0.50112251       0.49787849 </v>
    <v>       0.46704339       0.58519926       0.51557024 </v>
   </varray>
  </structure>
  <varray name="forces" >
   <v>      -0.35571081      -0.52909624       0.02146282 </v>
   <v>       0.61941354      -0.03615144       0.29931002 </v>
   <v>      -0.24138234       0.58359231      -0.04388937 </v>
   <v>      -0.25433650      -0.43789680      -0.38937495 </v>
   <v>      -0.55472113      -0.16882071       0.45125701 </v>
   <v>       0.47180621      -0.30062499      -0.01611801 </v>
   <v>      -0.58777890       0.38978040       0.19004890 </v>
   <v>      -0.06095143      -0.50343565      -0.18995840 </v>
   <v>       3.62506323       0.63658995      -3.15801974 </v>
   <v>       0.15017867       0.67897547       0.61606142 </v>
   <v>       0.40231315      -0.31255389      -0.54702923 </v>
   <v>      -0.02695329       0.53634353       0.06526939 </v>
   <v>      -0.23554993       0.57272102      -0.32903183 </v>
   <v>       0.53166405      -0.15427041       0.45307917 </v>
   <v>       0.04245842       0.45542893      -0.44891217 </v>
   <v>       0.61241037       0.15333714       0.05561424 </v>
   <v>      -3.73460559      -1.27104227       2.51277593 </v>
   <v>      -0.40331772      -0.29287636       0.45745481 </v>
  </varray>
  <varray name="stress" >
   <v>      -1.02172409      -0.08733373       0.51989236 </v>
   <v>      -0.08733373      -0.30151028       0.21967797 </v>
   <v>       0.51989235       0.21967797      -1.19893495 </v>
  </varray>
  <energy>
   <i name="e_fr_energy">    -86.92234311 </i>
   <i name="e_wo_entrp">    -86.92234311 </i>
   <i name="e_0_energy">     -0.00000000 </i>
  </energy>
  <time name="totalsc">   20.48   20.85</time>
 </calculation>
 <calculation>
  <scstep>
   <time name="dav">    0.57    0.57</time>
   <time name="total">    0.71    0.72</time>
   <dipole>
    <v name="dipole">      1.54559030       0.41404082      -1.11512324 </v>
    <i name="Tr[quadrupol]">      7.99583116 </i>
    <i name="Echarged">      0.00000000 </i>
    <i name="Edipol_quadrupol">      0.00000000 </i>
    <i name="Eion">      0.00000000 </i>
   </dipole>
   <energy>
    <i name="alphaZ">      1.02865646 </i>
    <i name="ewald">   3055.54494677 </i>
    <i name="hartreedc">  -5456.83421371 </i>
    <i name="XCdc">    205.14884424 </i>
    <i name="pawpsdc">   3375.21464497 </i>
    <i name="pawaedc">  -3387.78581533 </i>
    <i name="eentropy">     -0.00000000 </i>
    <i name="bandstr">   -658.47060144 </i>
    <i name="atom">   2743.32276819 </i>
    <i name="e_fr_energy">   -122.83076985 </i>
    <i name="e_wo_entrp">   -122.83076985 </i>
    <i name="e_0_energy">   -122.83076985 </i>
   </energy>
  </scstep>
  <scstep>
   <time name="diag">    0.09    0.09</time>
   <time name="diis">    0.67    0.67</time>
   <time name="orth">    0.01    0.01</time>
   <time name="total">    0.92    0.92</time>
   <dipole>
    <v name="dipole">      0.81130600       0.12840155      -0.63151116 </v>
    <i name="Tr[quadrupol]">     13.05368489 </i>
    <i name="Echarged">      0.00000000 </i>
    <i name="Edipol_quadrupol">      0.00000000 </i>
    <i name="Eion">      0.00000000 </i>
   </dipole>
   <energy>
    <i name="e_fr_energy">    -84.43874612 </i>
    <i name="e_wo_entrp">    -84.43874612 </i>
    <i name="e_0_energy">    -84.43874612 </i>
   </energy>
  </scstep>
  <scstep>
   <time name="diag">    0.09    0.09</time>
   <time name="diis">    0.60    0.60</time>
   <time name="orth">    0.01    0.01</time>
   <time name="total">    0.84    0.84</time>
   <dipole>
    <v name="dipole">      0.70460211       0.09945412      -0.44227288 </v>
    <i name="Tr[quadrupol]">     14.30713971 </i>
    <i name="Echarged">      0.00000000 </i>
    <i name="Edipol_quadrupol">      0.00000000 </i>
    <i name="Eion">      0.00000000 </i>
   </dipole>
   <energy>
    <i name="e_fr_energy">    -57.55713370 </i>
    <i name="e_wo_entrp">    -57.55713370 </i>
    <i name="e_0_energy">    -57.55713370 </i>
   </energy>
  </scstep>
  <scstep>
   <time name="diag">    0.09    0.09</time>
   <time name="diis">    0.60    0.60</time>
   <time name="orth">    0.01    0.01</time>
   <time name="total">    0.85    0.85</time>
   <dipole>
    <v name="dipole">      0.63632744       0.10371812      -0.33813023 </v>
    <i name="Tr[quadrupol]">     15.10505554 </i>
    <i name="Echarged">      0.00000000 </i>
    <i name="Edipol_quadrupol">      0.00000000 </i>
    <i name="Eion">      0.00000000 </i>
   </dipole>
   <energy>
    <i name="e_fr_energy">    -55.98104770 </i>
    <i name="e_wo_entrp">    -55.98104770 </i>
    <i name="e_0_energy">    -55.98104770 </i>
   </energy>
  </scstep>
  <scstep>
   <time name="diag">    0.09    0.09</time>
   <time name="diis">    0.59    0.59</time>
   <time name="orth">    0.01    0.01</time>
   <time name="total">    0.84    0.84</time>
   <dipole>
    <v name="dipole">      0.57209909       0.13373070      -0.25653824 </v>
    <i name="Tr[quadrupol]">     15.77720270 </i>
    <i name="Echarged">      0.00000000 </i>
    <i name="Edipol_quadrupol">      0.00000000 </i>
    <i name="Eion">      0.00000000 </i>
   </dipole>
   <energy>
    <i name="e_fr_energy">    -55.72324781 </i>
    <i name="e_wo_entrp">    -55.72324781 </i>
    <i name="e_0_energy">    -55.72324781 </i>
   </energy>
  </scstep>
  <scstep>
   <time name="diag">    0.09    0.09</time>
   <time name="diis">    0.60    0.60</time>
   <time name="orth">    0.01    0.01</time>
   <time name="total">    0.84    0.85</time>
   <dipole>
    <v name="dipole">      0.52954332       0.13314558      -0.22143165 </v>
    <i name="Tr[quadrupol]">     16.05248941 </i>
    <i name="Echarged">      0.00000000 </i>
    <i name="Edipol_quadrupol">      0.00000000 </i>
    <i name="Eion">      0.00000000 </i>
   </dipole>
   <energy>
    <i name="e_fr_energy">    -55.55258872 </i>
    <i name="e_wo_entrp">    -55.55258872 </i>
    <i name="e_0_energy">    -55.55258872 </i>
   </energy>
  </scstep>
  <scstep>
   <time name="diag">    0.09    0.09</time>
   <time name="diis">    0.61    0.62</time>
   <time name="orth">    0.01    0.01</time>
   <time name="total">    0.86    0.87</time>
   <dipole>
    <v name="dipole">      0.44614328       0.13632599      -0.16912008 </v>
    <i name="Tr[quadrupol]">     16.55305513 </i>
    <i name="Echarged">      0.00000000 </i>
    <i name="Edipol_quadrupol">      0.00000000 </i>
    <i name="Eion">      0.00000000 </i>
   </dipole>
   <energy>
    <i name="e_fr_energy">    -55.56402494 </i>
    <i name="e_wo_entrp">    -55.56402494 </i>
    <i name="e_0_energy">    -55.56402494 </i>
   </energy>
  </scstep>
  <scstep>
   <time name="diag">    0.09    0.09</time>
   <time name="diis">    0.60    0.60</time>
   <time name="orth">    0.01    0.01</time>
   <time name="total">    0.85    0.85</time>
   <dipole>
    <v name="dipole">      0.39607763       0.14146707      -0.13857897 </v>
    <i name="Tr[quadrupol]">     16.89163779 </i>
    <i name="Echarged">      0.00000000 </i>
    <i name="Edipol_quadrupol">      0.00000000 </i>
    <i name="Eion">      0.00000000 </i>
   </dipole>
   <energy>
    <i name="e_fr_energy">    -55.55170502 </i>
    <i name="e_wo_entrp">    -55.55170502 </i>
    <i name="e_0_energy">    -55.55170502 </i>
   </energy>
  </scstep>
  <scstep>
   <time name="diag">    0.09    0.09</time>
   <time name="diis">    0.59    0.59</time>
   <time name="orth">    0.01    0.01</time>
   <time name="total">    0.84    0.84</time>
   <dipole>
    <v name="dipole">      0.30881981       0.14455264      -0.10088859 </v>
    <i name="Tr[quadrupol]">     17.42435690 </i>
    <i name="Echarged">      0.00000000 </i>
    <i name="Edipol_quadrupol">      0.00000000 </i>
    <i name="Eion">      0.00000000 </i>
   </dipole>
   <energy>
    <i name="e_fr_energy">    -55.55509229 </i>
    <i name="e_wo_entrp">    -55.55509229 </i>
    <i name="e_0_energy">    -55.55509229 </i>
   </energy>
  </scstep>
  <scstep>
   <time name="diag">    0.10    0.10</time>
   <time name="diis">    0.56    0.56</time>
   <time name="orth">    0.01    0.01</time>
   <time name="total">    0.81    0.81</time>
   <dipole>
    <v name="dipole">      0.22474977       0.14446819      -0.07080645 </v>
    <i name="Tr[quadrupol]">     17.89146194 </i>
    <i name="Echarged">      0.00000000 </i>
    <i name="Edipol_quadrupol">      0.00000000 </i>
    <i name="Eion">      0.00000000 </i>
   </dipole>
   <energy>
    <i name="e_fr_energy">    -55.55520671 </i>
    <i name="e_wo_entrp">    -55.55520671 </i>
    <i name="e_0_energy">    -55.55520671 </i>
   </energy>
  </scstep>
  <scstep>
   <time name="diag">    0.09    0.09</time>
   <time name="diis">    0.56    0.56</time>
   <time name="orth">    0.01    0.01</time>
   <time name="total">    0.81    0.81</time>
   <dipole>
    <v name="dipole">      0.15234973       0.14396774      -0.05154662 </v>
    <i name="Tr[quadrupol]">     18.26877906 </i>
    <i name="Echarged">      0.00000000 </i>
    <i name="Edipol_quadrupol">      0.00000000 </i>
    <i name="Eion">      0.00000000 </i>
   </dipole>
   <energy>
    <i name="e_fr_energy">    -55.55742614 </i>
    <i name="e_wo_entrp">    -55.55742614 </i>
    <i name="e_0_energy">    -55.55742614 </i>
   </energy>
  </scstep>
  <scstep>
   <time name="diag">    0.09    0.09</time>
   <time name="diis">    0.63    0.63</time>
   <time name="orth">    0.01    0.01</time>
   <time name="total">    0.87    0.87</time>
   <dipole>
    <v name="dipole">      0.11470607       0.14304338      -0.04514695 </v>
    <i name="Tr[quadrupol]">     18.44384116 </i>
    <i name="Echarged">      0.00000000 </i>
    <i name="Edipol_quadrupol">      0.00000000 </i>
    <i name="Eion">      0.00000000 </i>
   </dipole>
   <energy>
    <i name="e_fr_energy">    -55.55891923 </i>
    <i name="e_wo_entrp">    -55.55891923 </i>
    <i name="e_0_energy">    -55.55891923 </i>
   </energy>
  </scstep>
  <scstep>
   <time name="diag">    0.10    0.10</time>
   <time name="diis">    0.59    0.59</time>
   <time name="orth">    0.01    0.01</time>
   <time name="total">    0.84    0.84</time>
   <dipole>
    <v name="dipole">      0.09197012       0.14221239      -0.04178171 </v>
    <i name="Tr[quadrupol]">     18.54635659 </i>
    <i name="Echarged">      0.00000000 </i>
    <i name="Edipol_quadrupol">      0.00000000 </i>
    <i name="Eion">      0.00000000 </i>
   </dipole>
   <energy>
    <i name="e_fr_energy">    -55.55980713 </i>
    <i name="e_wo_entrp">    -55.55980713 </i>
    <i name="e_0_energy">    -55.55980713 </i>
   </energy>
  </scstep>
  <scstep>
   <time name="diag">    0.09    0.09</time>
   <time name="diis">    0.54    0.54</time>
   <time name="orth">    0.01    0.01</time>
   <time name="total">    0.79    0.79</time>
   <dipole>
    <v name="dipole">      0.07298660       0.14125815      -0.03952759 </v>
    <i name="Tr[quadrupol]">     18.62711013 </i>
    <i name="Echarged">      0.00000000 </i>
    <i name="Edipol_quadrupol">      0.00000000 </i>
    <i name="Eion">      0.00000000 </i>
   </dipole>
   <energy>
    <i name="e_fr_energy">    -55.56106879 </i>
    <i name="e_wo_entrp">    -55.56106879 </i>
    <i name="e_0_energy">    -55.56106879 </i>
   </energy>
  </scstep>
  <scstep>
   <time name="diag">    0.09    0.09</time>
   <time name="diis">    0.54    0.54</time>
   <time name="orth">    0.01    0.01</time>
   <time name="total">    0.79    0.79</time>
   <dipole>
    <v name="dipole">      0.06339091       0.14093845      -0.03685834 </v>
    <i name="Tr[quadrupol]">     18.67403439 </i>
    <i name="Echarged">      0.00000000 </i>
    <i name="Edipol_quadrupol">      0.00000000 </i>
    <i name="Eion">      0.00000000 </i>
   </dipole>
   <energy>
    <i name="e_fr_energy">    -55.56147870 </i>
    <i name="e_wo_entrp">    -55.56147870 </i>
    <i name="e_0_energy">    -55.56147870 </i>
   </energy>
  </scstep>
  <scstep>
   <time name="diag">    0.09    0.09</time>
   <time name="diis">    0.53    0.53</time>
   <time name="orth">    0.01    0.01</time>
   <time name="total">    0.78    0.78</time>
   <dipole>
    <v name="dipole">      0.05857787       0.14059427      -0.03394148 </v>
    <i name="Tr[quadrupol]">     18.70084571 </i>
    <i name="Echarged">      0.00000000 </i>
    <i name="Edipol_quadrupol">      0.00000000 </i>
    <i name="Eion">      0.00000000 </i>
   </dipole>
   <energy>
    <i name="e_fr_energy">    -55.56175854 </i>
    <i name="e_wo_entrp">    -55.56175854 </i>
    <i name="e_0_energy">    -55.56175854 </i>
   </energy>
  </scstep>
  <scstep>
   <time name="diag">    0.09    0.09</time>
   <time name="diis">    0.54    0.54</time>
   <time name="orth">    0.01    0.01</time>
   <time name="total">    0.79    0.79</time>
   <dipole>
    <v name="dipole">      0.05694496       0.14050253      -0.03232909 </v>
    <i name="Tr[quadrupol]">     18.71230132 </i>
    <i name="Echarged">      0.00000000 </i>
    <i name="Edipol_quadrupol">      0.00000000 </i>
    <i name="Eion">      0.00000000 </i>
   </dipole>
   <energy>
    <i name="e_fr_energy">    -55.56185469 </i>
    <i name="e_wo_entrp">    -55.56185469 </i>
    <i name="e_0_energy">    -55.56185469 </i>
   </energy>
  </scstep>
  <scstep>
   <time name="diag">    0.09    0.09</time>
   <time name="diis">    0.45    0.45</time>
   <time name="orth">    0.01    0.01</time>
   <time name="total">    0.70    0.70</time>
   <dipole>
    <v name="dipole">      0.05637646       0.14045821      -0.03054628 </v>
    <i name="Tr[quadrupol]">     18.72039586 </i>
    <i name="Echarged">      0.00000000 </i>
    <i name="Edipol_quadrupol">      0.00000000 </i>
    <i name="Eion">      0.00000000 </i>
   </dipole>
   <energy>
    <i name="e_fr_energy">    -55.56194909 </i>
    <i name="e_wo_entrp">    -55.56194909 </i>
    <i name="e_0_energy">    -55.56194909 </i>
   </energy>
  </scstep>
  <scstep>
   <time name="diag">    0.09    0.09</time>
   <time name="diis">    0.48    0.48</time>
   <time name="orth">    0.01    0.01</time>
   <time name="total">    0.74    0.74</time>
   <dipole>
    <v name="dipole">      0.05653240       0.14045425      -0.02941540 </v>
    <i name="Tr[quadrupol]">     18.72401431 </i>
    <i name="Echarged">      0.00000000 </i>
    <i name="Edipol_quadrupol">      0.00000000 </i>
    <i name="Eion">      0.00000000 </i>
   </dipole>
   <energy>
    <i name="e_fr_energy">    -55.56199093 </i>
    <i name="e_wo_entrp">    -55.56199093 </i>
    <i name="e_0_energy">    -55.56199093 </i>
   </energy>
  </scstep>
  <scstep>
   <time name="diag">    0.09    0.09</time>
   <time name="diis">    0.39    0.39</time>
   <time name="orth">    0.01    0.01</time>
   <time name="total">    0.64    0.64</time>
   <dipole>
    <v name="dipole">      0.05676922       0.14043738      -0.02853899 </v>
    <i name="Tr[quadrupol]">     18.72658817 </i>
    <i name="Echarged">      0.00000000 </i>
    <i name="Edipol_quadrupol">      0.00000000 </i>
    <i name="Eion">      0.00000000 </i>
   </dipole>
   <energy>
    <i name="e_fr_energy">    -55.56201341 </i>
    <i name="e_wo_entrp">    -55.56201341 </i>
    <i name="e_0_energy">    -55.56201341 </i>
   </energy>
  </scstep>
  <scstep>
   <time name="diag">    0.09    0.09</time>
   <time name="diis">    0.42    0.42</time>
   <time name="orth">    0.01    0.01</time>
   <time name="total">    0.67    0.67</time>
   <dipole>
    <v name="dipole">      0.05698771       0.14041666      -0.02807175 </v>
    <i name="Tr[quadrupol]">     18.72784290 </i>
    <i name="Echarged">      0.00000000 </i>
    <i name="Edipol_quadrupol">      0.00000000 </i>
    <i name="Eion">      0.00000000 </i>
   </dipole>
   <energy>
    <i name="e_fr_energy">    -55.56202273 </i>
    <i name="e_wo_entrp">    -55.56202273 </i>
    <i name="e_0_energy">    -55.56202273 </i>
   </energy>
  </scstep>
  <scstep>
   <time name="diag">    0.09    0.09</time>
   <time name="diis">    0.39    0.39</time>
   <time name="orth">    0.01    0.01</time>
   <time name="total">    0.65    0.65</time>
   <dipole>
    <v name="dipole">      0.05717035       0.14039700      -0.02777007 </v>
    <i name="Tr[quadrupol]">     18.72869389 </i>
    <i name="Echarged">      0.00000000 </i>
    <i name="Edipol_quadrupol">      0.00000000 </i>
    <i name="Eion">      0.00000000 </i>
   </dipole>
   <energy>
    <i name="e_fr_energy">    -55.56202773 </i>
    <i name="e_wo_entrp">    -55.56202773 </i>
    <i name="e_0_energy">    -55.56202773 </i>
   </energy>
  </scstep>
  <scstep>
   <time name="diag">    0.10    0.10</time>
   <time name="diis">    0.41    0.41</time>
   <time name="orth">    0.01    0.01</time>
   <time name="total">    0.67    0.67</time>
   <dipole>
    <v name="dipole">      0.05727839       0.14038270      -0.02764802 </v>
    <i name="Tr[quadrupol]">     18.72910483 </i>
    <i name="Echarged">      0.00000000 </i>
    <i name="Edipol_quadrupol">      0.00000000 </i>
    <i name="Eion">      0.00000000 </i>
   </dipole>
   <energy>
    <i name="e_fr_energy">    -55.56202999 </i>
    <i name="e_wo_entrp">    -55.56202999 </i>
    <i name="e_0_energy">    -55.56202999 </i>
   </energy>
  </scstep>
  <scstep>
   <time name="diag">    0.09    0.09</time>
   <time name="diis">    0.37    0.37</time>
   <time name="orth">    0.01    0.01</time>
   <time name="total">    0.63    0.63</time>
   <dipole>
    <v name="dipole">      0.05733900       0.14037191      -0.02758400 </v>
    <i name="Tr[quadrupol]">     18.72938099 </i>
    <i name="Echarged">      0.00000000 </i>
    <i name="Edipol_quadrupol">      0.00000000 </i>
    <i name="Eion">      0.00000000 </i>
   </dipole>
   <energy>
    <i name="e_fr_energy">    -55.56203118 </i>
    <i name="e_wo_entrp">    -55.56203118 </i>
    <i name="e_0_energy">    -55.56203118 </i>
   </energy>
  </scstep>
  <scstep>
   <time name="diag">    0.09    0.09</time>
   <time name="diis">    0.38    0.38</time>
   <time name="orth">    0.01    0.01</time>
   <time name="total">    0.59    0.59</time>
   <dipole>
    <v name="dipole">      0.05736115       0.14036716      -0.02757134 </v>
    <i name="Tr[quadrupol]">     18.72948445 </i>
    <i name="Echarged">      0.00000000 </i>
    <i name="Edipol_quadrupol">      0.00000000 </i>
    <i name="Eion">      0.00000000 </i>
   </dipole>
   <energy>
    <i name="alphaZ">      1.01071648 </i>
    <i name="ewald">   3055.54494677 </i>
    <i name="hartreedc">  -5385.22473494 </i>
    <i name="XCdc">    205.26017900 </i>
    <i name="pawpsdc">   3474.68005751 </i>
    <i name="pawaedc">  -3487.79518733 </i>
    <i name="eentropy">     -0.00000000 </i>
    <i name="bandstr">   -662.36077752 </i>
    <i name="atom">   2743.32276819 </i>
    <i name="e_fr_energy">    -55.56203184 </i>
    <i name="e_wo_entrp">    -55.56203184 </i>
    <i name="e_0_energy">    -55.56203184 </i>
   </energy>
  </scstep>
  <structure>
   <crystal>
    <varray name="basis" >
     <v>      20.00000118       0.00000000       0.00000000 </v>
     <v>       0.00000000      20.00000118       0.00000000 </v>
     <v>       0.00000000       0.00000000      20.00000118 </v>
    </varray>
    <i name="volume">   8000.00141508 </i>
    <varray name="rec_basis" >
     <v>       0.05000000      -0.00000000      -0.00000000 </v>
     <v>       0.00000000       0.05000000      -0.00000000 </v>
     <v>       0.00000000       0.00000000       0.05000000 </v>
    </varray>
   </crystal>
   <varray name="positions" >
    <v>       0.51566464       0.48039029       0.42458202 </v>
    <v>       0.58476052       0.51736126       0.44376863 </v>
    <v>       0.50870912       0.51661325       0.57583155 </v>
    <v>       0.50789108       0.44094277       0.55052170 </v>
    <v>       0.60865027       0.48805522       0.54461430 </v>
    <v>       0.68374536       0.47489498       0.51534007 </v>
    <v>       0.41618050       0.43949427       0.47879111 </v>
    <v>       0.44796160       0.36894092       0.45262045 </v>
    <v>       0.33320555       0.49982356       0.52620240 </v>
    <v>       0.39152537       0.54062896       0.50856160 </v>
    <v>       0.49689175       0.56847987       0.47582104 </v>
    <v>       0.47019695       0.63510642       0.51605651 </v>
    <v>       0.53845427       0.52735359       0.42009877 </v>
    <v>       0.53342211       0.47129387       0.58493333 </v>
    <v>       0.64384181       0.50611487       0.50873242 </v>
    <v>       0.46269531       0.41462509       0.47038513 </v>
    <v>       0.34647014       0.49649229       0.50703214 </v>
    <v>       0.46557416       0.58413235       0.51723667 </v>
   </varray>
  </structure>
  <varray name="forces" >
   <v>       0.72466525       1.87965337      -0.17866726 </v>
   <v>      -1.51561950       0.46263078      -0.73241497 </v>
   <v>       1.10512232      -1.79023548       0.45174397 </v>
   <v>       1.10613792       1.08428311       1.37693241 </v>
   <v>       0.94833188       0.71630655      -1.25449306 </v>
   <v>      -1.51595084       1.24309927      -0.42195268 </v>
   <v>       1.68256883      -0.98623703      -0.16914794 </v>
   <v>       0.65950419       1.77440242       0.71668570 </v>
   <v>    -134.73240174      33.11659351     193.98981271 </v>
   <v>      -2.75050661      -2.79666294      -0.17936812 </v>
   <v>      -0.68183495      -0.07704696       0.76920908 </v>
   <v>      -0.43689851      -1.98367781       0.17429511 </v>
   <v>       0.70908261      -2.16121719       1.31501988 </v>
   <v>      -2.04277599       0.71861381      -1.96984618 </v>
   <v>       0.22605679      -1.94021280       1.63369832 </v>
   <v>      -2.71555385      -0.52716596      -0.34131000 </v>
   <v>     138.59288594     -29.93648947    -193.90120126 </v>
   <v>       0.63718626       1.20336281      -1.27899572 </v>
  </varray>
  <varray name="stress" >
   <v>       3.60589788      -2.26624685     -10.40912237 </v>
   <v>      -2.26624685      -3.21087348       2.41995916 </v>
   <v>     -10.40912237       2.41995916      13.07842318 </v>
  </varray>
  <energy>
   <i name="e_fr_energy">    -55.56203184 </i>
   <i name="e_wo_entrp">    -55.56203184 </i>
   <i name="e_0_energy">     -0.00000000 </i>
  </energy>
  <time name="totalsc">   20.00   20.15</time>
 </calculation>
 <calculation>
  <scstep>
   <time name="dav">    0.57    0.57</time>
   <time name="total">    0.72    0.72</time>
   <dipole>
    <v name="dipole">     -0.98747345      -0.03559708       0.85796818 </v>
    <i name="Tr[quadrupol]">     27.21045151 </i>
    <i name="Echarged">      0.00000000 </i>
    <i name="Edipol_quadrupol">      0.00000000 </i>
    <i name="Eion">      0.00000000 </i>
   </dipole>
   <energy>
    <i name="alphaZ">      0.99421360 </i>
    <i name="ewald">   3078.72522206 </i>
    <i name="hartreedc">  -5385.22447428 </i>
    <i name="XCdc">    205.26825046 </i>
    <i name="pawpsdc">   3474.67963837 </i>
    <i name="pawaedc">  -3487.79477372 </i>
    <i name="eentropy">     -0.00000000 </i>
    <i name="bandstr">   -789.27044067 </i>
    <i name="atom">   2743.32276819 </i>
    <i name="e_fr_energy">   -159.29959599 </i>
    <i name="e_wo_entrp">   -159.29959599 </i>
    <i name="e_0_energy">   -159.29959599 </i>
   </energy>
  </scstep>
  <scstep>
   <time name="diag">    0.09    0.09</time>
   <time name="diis">    0.60    0.60</time>
   <time name="orth">    0.01    0.01</time>
   <time name="total">    0.84    0.84</time>
   <dipole>
    <v name="dipole">     -0.57723313       0.07942448       0.48350014 </v>
    <i name="Tr[quadrupol]">     25.06398317 </i>
    <i name="Echarged">      0.00000000 </i>
    <i name="Edipol_quadrupol">      0.00000000 </i>
    <i name="Eion">      0.00000000 </i>
   </dipole>
   <energy>
    <i name="e_fr_energy">   -107.26523629 </i>
    <i name="e_wo_entrp">   -107.26523629 </i>
    <i name="e_0_energy">   -107.26523629 </i>
   </energy>
  </scstep>
  <scstep>
   <time name="diag">    0.09    0.10</time>
   <time name="diis">    0.60    0.60</time>
   <time name="orth">    0.01    0.01</time>
   <time name="total">    0.85    0.85</time>
   <dipole>
    <v name="dipole">     -0.48815900       0.10931374       0.29984152 </v>
    <i name="Tr[quadrupol]">     23.38188369 </i>
    <i name="Echarged">      0.00000000 </i>
    <i name="Edipol_quadrupol">      0.00000000 </i>
    <i name="Eion">      0.00000000 </i>
   </dipole>
   <energy>
    <i name="e_fr_energy">    -88.99155605 </i>
    <i name="e_wo_entrp">    -88.99155605 </i>
    <i name="e_0_energy">    -88.99155605 </i>
   </energy>
  </scstep>
  <scstep>
   <time name="diag">    0.09    0.09</time>
   <time name="diis">    0.60    0.60</time>
   <time name="orth">    0.01    0.01</time>
   <time name="total">    0.84    0.85</time>
   <dipole>
    <v name="dipole">     -0.37448227       0.13938315       0.16299113 </v>
    <i name="Tr[quadrupol]">     22.02639716 </i>
    <i name="Echarged">      0.00000000 </i>
    <i name="Edipol_quadrupol">      0.00000000 </i>
    <i name="Eion">      0.00000000 </i>
   </dipole>
   <energy>
    <i name="e_fr_energy">    -87.52451916 </i>
    <i name="e_wo_entrp">    -87.52451916 </i>
    <i name="e_0_energy">    -87.52451916 </i>
   </energy>
  </scstep>
  <scstep>
   <time name="diag">    0.09    0.09</time>
   <time name="diis">    0.59    0.60</time>
   <time name="orth">    0.01    0.01</time>
   <time name="total">    0.84    0.84</time>
   <dipole>
    <v name="dipole">     -0.27589490       0.15514424       0.11002543 </v>
    <i name="Tr[quadrupol]">     21.35885337 </i>
    <i name="Echarged">      0.00000000 </i>
    <i name="Edipol_quadrupol">      0.00000000 </i>
    <i name="Eion">      0.00000000 </i>
   </dipole>
   <energy>
    <i name="e_fr_energy">    -87.23910815 </i>
    <i name="e_wo_entrp">    -87.23910815 </i>
    <i name="e_0_energy">    -87.23910815 </i>
   </energy>
  </scstep>
  <scstep>
   <time name="diag">    0.09    0.09</time>
   <time name="diis">    0.60    0.60</time>
   <time name="orth">    0.01    0.01</time>
   <time name="total">    0.85    0.85</time>
   <dipole>
    <v name="dipole">     -0.19158140       0.16653904       0.05736107 </v>
    <i name="Tr[quadrupol]">     20.69660541 </i>
    <i name="Echarged">      0.00000000 </i>
    <i name="Edipol_quadrupol">      0.00000000 </i>
    <i name="Eion">      0.00000000 </i>
   </dipole>
   <energy>
    <i name="e_fr_energy">    -87.20464088 </i>
    <i name="e_wo_entrp">    -87.20464088 </i>
    <i name="e_0_energy">    -87.20464088 </i>
   </energy>
  </scstep>
  <scstep>
   <time name="diag">    0.09    0.09</time>
   <time name="diis">    0.60    0.60</time>
   <time name="orth">    0.01    0.01</time>
   <time name="total">    0.85    0.85</time>
   <dipole>
    <v name="dipole">     -0.09595190       0.17696818       0.00986308 </v>
    <i name="Tr[quadrupol]">     20.01739800 </i>
    <i name="Echarged">      0.00000000 </i>
    <i name="Edipol_quadrupol">      0.00000000 </i>
    <i name="Eion">      0.00000000 </i>
   </dipole>
   <energy>
    <i name="e_fr_energy">    -87.20137331 </i>
    <i name="e_wo_entrp">    -87.20137331 </i>
    <i name="e_0_energy">    -87.20137331 </i>
   </energy>
  </scstep>
  <scstep>
   <time name="diag">    0.09    0.09</time>
   <time name="diis">    0.59    0.59</time>
   <time name="orth">    0.01    0.01</time>
   <time name="total">    0.84    0.84</time>
   <dipole>
    <v name="dipole">     -0.00101615       0.18690635      -0.02475315 </v>
    <i name="Tr[quadrupol]">     19.42218439 </i>
    <i name="Echarged">      0.00000000 </i>
    <i name="Edipol_quadrupol">      0.00000000 </i>
    <i name="Eion">      0.00000000 </i>
   </dipole>
   <energy>
    <i name="e_fr_energy">    -87.20754149 </i>
    <i name="e_wo_entrp">    -87.20754149 </i>
    <i name="e_0_energy">    -87.20754149 </i>
   </energy>
  </scstep>
  <scstep>
   <time name="diag">    0.09    0.09</time>
   <time name="diis">    0.60    0.60</time>
   <time name="orth">    0.01    0.01</time>
   <time name="total">    0.84    0.84</time>
   <dipole>
    <v name="dipole">      0.13576463       0.19931992      -0.06929642 </v>
    <i name="Tr[quadrupol]">     18.59332865 </i>
    <i name="Echarged">      0.00000000 </i>
    <i name="Edipol_quadrupol">      0.00000000 </i>
    <i name="Eion">      0.00000000 </i>
   </dipole>
   <energy>
    <i name="e_fr_energy">    -87.21955587 </i>
    <i name="e_wo_entrp">    -87.21955587 </i>
    <i name="e_0_energy">    -87.21955587 </i>
   </energy>
  </scstep>
  <scstep>
   <time name="diag">    0.09    0.09</time>
   <time name="diis">    0.60    0.60</time>
   <time name="orth">    0.01    0.01</time>
   <time name="total">    0.85    0.85</time>
   <dipole>
    <v name="dipole">      0.20371758       0.20394462      -0.08778513 </v>
    <i name="Tr[quadrupol]">     18.21012819 </i>
    <i name="Echarged">      0.00000000 </i>
    <i name="Edipol_quadrupol">      0.00000000 </i>
    <i name="Eion">      0.00000000 </i>
   </dipole>
   <energy>
    <i name="e_fr_energy">    -87.22318520 </i>
    <i name="e_wo_entrp">    -87.22318520 </i>
    <i name="e_0_energy">    -87.22318520 </i>
   </energy>
  </scstep>
  <scstep>
   <time name="diag">    0.09    0.09</time>
   <time name="diis">    0.57    0.57</time>
   <time name="orth">    0.01    0.01</time>
   <time name="total">    0.82    0.82</time>
   <dipole>
    <v name="dipole">      0.28077692       0.20811321      -0.10067289 </v>
    <i name="Tr[quadrupol]">     17.83169371 </i>
    <i name="Echarged">      0.00000000 </i>
    <i name="Edipol_quadrupol">      0.00000000 </i>
    <i name="Eion">      0.00000000 </i>
   </dipole>
   <energy>
    <i name="e_fr_energy">    -87.22984338 </i>
    <i name="e_wo_entrp">    -87.22984338 </i>
    <i name="e_0_energy">    -87.22984338 </i>
   </energy>
  </scstep>
  <scstep>
   <time name="diag">    0.09    0.09</time>
   <time name="diis">    0.60    0.60</time>
   <time name="orth">    0.01    0.01</time>
   <time name="total">    0.85    0.86</time>
   <dipole>
    <v name="dipole">      0.30449324       0.20912680      -0.10292986 </v>
    <i name="Tr[quadrupol]">     17.73031060 </i>
    <i name="Echarged">      0.00000000 </i>
    <i name="Edipol_quadrupol">      0.00000000 </i>
    <i name="Eion">      0.00000000 </i>
   </dipole>
   <energy>
    <i name="e_fr_energy">    -87.23209470 </i>
    <i name="e_wo_entrp">    -87.23209470 </i>
    <i name="e_0_energy">    -87.23209470 </i>
   </energy>
  </scstep>
  <scstep>
   <time name="diag">    0.09    0.09</time>
   <time name="diis">    0.54    0.54</time>
   <time name="orth">    0.01    0.01</time>
   <time name="total">    0.79    0.79</time>
   <dipole>
    <v name="dipole">      0.32971209       0.21010528      -0.10605837 </v>
    <i name="Tr[quadrupol]">     17.62241376 </i>
    <i name="Echarged">      0.00000000 </i>
    <i name="Edipol_quadrupol">      0.00000000 </i>
    <i name="Eion">      0.00000000 </i>
   </dipole>
   <energy>
    <i name="e_fr_energy">    -87.23459846 </i>
    <i name="e_wo_entrp">    -87.23459846 </i>
    <i name="e_0_energy">    -87.23459846 </i>
   </energy>
  </scstep>
  <scstep>
   <time name="diag">    0.09    0.09</time>
   <time name="diis">    0.50    0.50</time>
   <time name="orth">    0.01    0.01</time>
   <time name="total">    0.75    0.75</time>
   <dipole>
    <v name="dipole">      0.34992071       0.21102790      -0.10921534 </v>
    <i name="Tr[quadrupol]">     17.53692899 </i>
    <i name="Echarged">      0.00000000 </i>
    <i name="Edipol_quadrupol">      0.00000000 </i>
    <i name="Eion">      0.00000000 </i>
   </dipole>
   <energy>
    <i name="e_fr_energy">    -87.23619471 </i>
    <i name="e_wo_entrp">    -87.23619471 </i>
    <i name="e_0_energy">    -87.23619471 </i>
   </energy>
  </scstep>
  <scstep>
   <time name="diag">    0.09    0.09</time>
   <time name="diis">    0.49    0.49</time>
   <time name="orth">    0.01    0.01</time>
   <time name="total">    0.74    0.74</time>
   <dipole>
    <v name="dipole">      0.35750481       0.21172723      -0.11219302 </v>
    <i name="Tr[quadrupol]">     17.50028320 </i>
    <i name="Echarged">      0.00000000 </i>
    <i name="Edipol_quadrupol">      0.00000000 </i>
    <i name="Eion">      0.00000000 </i>
   </dipole>
   <energy>
    <i name="e_fr_energy">    -87.23680386 </i>
    <i name="e_wo_entrp">    -87.23680386 </i>
    <i name="e_0_energy">    -87.23680386 </i>
   </energy>
  </scstep>
  <scstep>
   <time name="diag">    0.10    0.10</time>
   <time name="diis">    0.56    0.56</time>
   <time name="orth">    0.01    0.01</time>
   <time name="total">    0.81    0.81</time>
   <dipole>
    <v name="dipole">      0.36039231       0.21237682      -0.11528557 </v>
    <i name="Tr[quadrupol]">     17.47865335 </i>
    <i name="Echarged">      0.00000000 </i>
    <i name="Edipol_quadrupol">      0.00000000 </i>
    <i name="Eion">      0.00000000 </i>
   </dipole>
   <energy>
    <i name="e_fr_energy">    -87.23707133 </i>
    <i name="e_wo_entrp">    -87.23707133 </i>
    <i name="e_0_energy">    -87.23707133 </i>
   </energy>
  </scstep>
  <scstep>
   <time name="diag">    0.09    0.09</time>
   <time name="diis">    0.52    0.52</time>
   <time name="orth">    0.01    0.01</time>
   <time name="total">    0.77    0.77</time>
   <dipole>
    <v name="dipole">      0.36121930       0.21274943      -0.11696061 </v>
    <i name="Tr[quadrupol]">     17.47016214 </i>
    <i name="Echarged">      0.00000000 </i>
    <i name="Edipol_quadrupol">      0.00000000 </i>
    <i name="Eion">      0.00000000 </i>
   </dipole>
   <energy>
    <i name="e_fr_energy">    -87.23718274 </i>
    <i name="e_wo_entrp">    -87.23718274 </i>
    <i name="e_0_energy">    -87.23718274 </i>
   </energy>
  </scstep>
  <scstep>
   <time name="diag">    0.09    0.09</time>
   <time name="diis">    0.41    0.42</time>
   <time name="orth">    0.01    0.01</time>
   <time name="total">    0.66    0.67</time>
   <dipole>
    <v name="dipole">      0.36118714       0.21312721      -0.11859679 </v>
    <i name="Tr[quadrupol]">     17.46457843 </i>
    <i name="Echarged">      0.00000000 </i>
    <i name="Edipol_quadrupol">      0.00000000 </i>
    <i name="Eion">      0.00000000 </i>
   </dipole>
   <energy>
    <i name="e_fr_energy">    -87.23724866 </i>
    <i name="e_wo_entrp">    -87.23724866 </i>
    <i name="e_0_energy">    -87.23724866 </i>
   </energy>
  </scstep>
  <scstep>
   <time name="diag">    0.09    0.09</time>
   <time name="diis">    0.42    0.42</time>
   <time name="orth">    0.01    0.01</time>
   <time name="total">    0.67    0.67</time>
   <dipole>
    <v name="dipole">      0.36100945       0.21327604      -0.11920557 </v>
    <i name="Tr[quadrupol]">     17.46295194 </i>
    <i name="Echarged">      0.00000000 </i>
    <i name="Edipol_quadrupol">      0.00000000 </i>
    <i name="Eion">      0.00000000 </i>
   </dipole>
   <energy>
    <i name="e_fr_energy">    -87.23726429 </i>
    <i name="e_wo_entrp">    -87.23726429 </i>
    <i name="e_0_energy">    -87.23726429 </i>
   </energy>
  </scstep>
  <scstep>
   <time name="diag">    0.09    0.09</time>
   <time name="diis">    0.35    0.35</time>
   <time name="orth">    0.01    0.01</time>
   <time name="total">    0.61    0.61</time>
   <dipole>
    <v name="dipole">      0.36063699       0.21345744      -0.11990426 </v>
    <i name="Tr[quadrupol]">     17.46157482 </i>
    <i name="Echarged">      0.00000000 </i>
    <i name="Edipol_quadrupol">      0.00000000 </i>
    <i name="Eion">      0.00000000 </i>
   </dipole>
   <energy>
    <i name="e_fr_energy">    -87.23727719 </i>
    <i name="e_wo_entrp">    -87.23727719 </i>
    <i name="e_0_energy">    -87.23727719 </i>
   </energy>
  </scstep>
  <scstep>
   <time name="diag">    0.09    0.09</time>
   <time name="diis">    0.39    0.39</time>
   <time name="orth">    0.01    0.01</time>
   <time name="total">    0.64    0.64</time>
   <dipole>
    <v name="dipole">      0.36055603       0.21349819      -0.12005537 </v>
    <i name="Tr[quadrupol]">     17.46125778 </i>
    <i name="Echarged">      0.00000000 </i>
    <i name="Edipol_quadrupol">      0.00000000 </i>
    <i name="Eion">      0.00000000 </i>
   </dipole>
   <energy>
    <i name="e_fr_energy">    -87.23727939 </i>
    <i name="e_wo_entrp">    -87.23727939 </i>
    <i name="e_0_energy">    -87.23727939 </i>
   </energy>
  </scstep>
  <scstep>
   <time name="diag">    0.09    0.09</time>
   <time name="diis">    0.34    0.34</time>
   <time name="orth">    0.01    0.01</time>
   <time name="total">    0.59    0.59</time>
   <dipole>
    <v name="dipole">      0.36042414       0.21356280      -0.12029718 </v>
    <i name="Tr[quadrupol]">     17.46072902 </i>
    <i name="Echarged">      0.00000000 </i>
    <i name="Edipol_quadrupol">      0.00000000 </i>
    <i name="Eion">      0.00000000 </i>
   </dipole>
   <energy>
    <i name="e_fr_energy">    -87.23728254 </i>
    <i name="e_wo_entrp">    -87.23728254 </i>
    <i name="e_0_energy">    -87.23728254 </i>
   </energy>
  </scstep>
  <scstep>
   <time name="diag">    0.10    0.10</time>
   <time name="diis">    0.39    0.39</time>
   <time name="orth">    0.01    0.01</time>
   <time name="total">    0.60    0.61</time>
   <dipole>
    <v name="dipole">      0.36039476       0.21357464      -0.12034100 </v>
    <i name="Tr[quadrupol]">     17.46064960 </i>
    <i name="Echarged">      0.00000000 </i>
    <i name="Edipol_quadrupol">      0.00000000 </i>
    <i name="Eion">      0.00000000 </i>
   </dipole>
   <energy>
    <i name="alphaZ">      1.01156869 </i>
    <i name="ewald">   3078.72522206 </i>
    <i name="hartreedc">  -5447.14299695 </i>
    <i name="XCdc">    204.99008854 </i>
    <i name="pawpsdc">   3357.80246064 </i>
    <i name="pawaedc">  -3370.34010853 </i>
    <i name="eentropy">     -0.00000000 </i>
    <i name="bandstr">   -655.60628594 </i>
    <i name="atom">   2743.32276819 </i>
    <i name="e_fr_energy">    -87.23728329 </i>
    <i name="e_wo_entrp">    -87.23728329 </i>
    <i name="e_0_energy">    -87.23728329 </i>
   </energy>
  </scstep>
  <structure>
   <crystal>
    <varray name="basis" >
     <v>      20.00000118       0.00000000       0.00000000 </v>
     <v>       0.00000000      20.00000118       0.00000000 </v>
[...]
    <i name="atom">   2743.32276819 </i>
    <i name="e_fr_energy">    -87.49317207 </i>
    <i name="e_wo_entrp">    -87.49317207 </i>
    <i name="e_0_energy">    -87.49317207 </i>
   </energy>
  </scstep>
  <scstep>
   <time name="diag">    0.09    0.09</time>
   <time name="diis">    0.49    0.49</time>
   <time name="orth">    0.01    0.01</time>
   <time name="total">    0.73    0.74</time>
   <dipole>
    <v name="dipole">      0.31177770       0.25901680      -0.12295862 </v>
    <i name="Tr[quadrupol]">     18.14606760 </i>
    <i name="Echarged">      0.00000000 </i>
    <i name="Edipol_quadrupol">      0.00000000 </i>
    <i name="Eion">      0.00000000 </i>
   </dipole>
   <energy>
    <i name="e_fr_energy">    -87.49125011 </i>
    <i name="e_wo_entrp">    -87.49125011 </i>
    <i name="e_0_energy">    -87.49125011 </i>
   </energy>
  </scstep>
  <scstep>
   <time name="diag">    0.10    0.10</time>
   <time name="diis">    0.57    0.57</time>
   <time name="orth">    0.01    0.01</time>
   <time name="total">    0.82    0.82</time>
   <dipole>
    <v name="dipole">      0.31335549       0.25954451      -0.12079699 </v>
    <i name="Tr[quadrupol]">     18.15294940 </i>
    <i name="Echarged">      0.00000000 </i>
    <i name="Edipol_quadrupol">      0.00000000 </i>
    <i name="Eion">      0.00000000 </i>
   </dipole>
   <energy>
    <i name="e_fr_energy">    -87.49032139 </i>
    <i name="e_wo_entrp">    -87.49032139 </i>
    <i name="e_0_energy">    -87.49032139 </i>
   </energy>
  </scstep>
  <scstep>
   <time name="diag">    0.09    0.09</time>
   <time name="diis">    0.58    0.58</time>
   <time name="orth">    0.01    0.01</time>
   <time name="total">    0.82    0.83</time>
   <dipole>
    <v name="dipole">      0.31347932       0.25966045      -0.12055911 </v>
    <i name="Tr[quadrupol]">     18.15436911 </i>
    <i name="Echarged">      0.00000000 </i>
    <i name="Edipol_quadrupol">      0.00000000 </i>
    <i name="Eion">      0.00000000 </i>
   </dipole>
   <energy>
    <i name="e_fr_energy">    -87.49032037 </i>
    <i name="e_wo_entrp">    -87.49032037 </i>
    <i name="e_0_energy">    -87.49032037 </i>
   </energy>
  </scstep>
  <scstep>
   <time name="diag">    0.09    0.09</time>
   <time name="diis">    0.53    0.53</time>
   <time name="orth">    0.01    0.01</time>
   <time name="total">    0.77    0.77</time>
   <dipole>
    <v name="dipole">      0.31375961       0.25987188      -0.12001813 </v>
    <i name="Tr[quadrupol]">     18.15704972 </i>
    <i name="Echarged">      0.00000000 </i>
    <i name="Edipol_quadrupol">      0.00000000 </i>
    <i name="Eion">      0.00000000 </i>
   </dipole>
   <energy>
    <i name="e_fr_energy">    -87.49032871 </i>
    <i name="e_wo_entrp">    -87.49032871 </i>
    <i name="e_0_energy">    -87.49032871 </i>
   </energy>
  </scstep>
  <scstep>
   <time name="diag">    0.09    0.09</time>
   <time name="diis">    0.52    0.52</time>
   <time name="orth">    0.01    0.01</time>
   <time name="total">    0.76    0.77</time>
   <dipole>
    <v name="dipole">      0.31394018       0.26000604      -0.11959067 </v>
    <i name="Tr[quadrupol]">     18.15914911 </i>
    <i name="Echarged">      0.00000000 </i>
    <i name="Edipol_quadrupol">      0.00000000 </i>
    <i name="Eion">      0.00000000 </i>
   </dipole>
   <energy>
    <i name="e_fr_energy">    -87.49033779 </i>
    <i name="e_wo_entrp">    -87.49033779 </i>
    <i name="e_0_energy">    -87.49033779 </i>
   </energy>
  </scstep>
  <scstep>
   <time name="diag">    0.09    0.09</time>
   <time name="diis">    0.46    0.46</time>
   <time name="orth">    0.01    0.01</time>
   <time name="total">    0.71    0.71</time>
   <dipole>
    <v name="dipole">      0.31407044       0.26015463      -0.11917892 </v>
    <i name="Tr[quadrupol]">     18.16167559 </i>
    <i name="Echarged">      0.00000000 </i>
    <i name="Edipol_quadrupol">      0.00000000 </i>
    <i name="Eion">      0.00000000 </i>
   </dipole>
   <energy>
    <i name="e_fr_energy">    -87.49035262 </i>
    <i name="e_wo_entrp">    -87.49035262 </i>
    <i name="e_0_energy">    -87.49035262 </i>
   </energy>
  </scstep>
  <scstep>
   <time name="diag">    0.09    0.09</time>
   <time name="diis">    0.46    0.46</time>
   <time name="orth">    0.01    0.01</time>
   <time name="total">    0.70    0.70</time>
   <dipole>
    <v name="dipole">      0.31404897       0.26024524      -0.11885123 </v>
    <i name="Tr[quadrupol]">     18.16449591 </i>
    <i name="Echarged">      0.00000000 </i>
    <i name="Edipol_quadrupol">      0.00000000 </i>
    <i name="Eion">      0.00000000 </i>
   </dipole>
   <energy>
    <i name="e_fr_energy">    -87.49037667 </i>
    <i name="e_wo_entrp">    -87.49037667 </i>
    <i name="e_0_energy">    -87.49037667 </i>
   </energy>
  </scstep>
  <scstep>
   <time name="diag">    0.09    0.09</time>
   <time name="diis">    0.40    0.41</time>
   <time name="orth">    0.01    0.01</time>
   <time name="total">    0.65    0.66</time>
   <dipole>
    <v name="dipole">      0.31400424       0.26030549      -0.11861317 </v>
    <i name="Tr[quadrupol]">     18.16649779 </i>
    <i name="Echarged">      0.00000000 </i>
    <i name="Edipol_quadrupol">      0.00000000 </i>
    <i name="Eion">      0.00000000 </i>
   </dipole>
   <energy>
    <i name="e_fr_energy">    -87.49038872 </i>
    <i name="e_wo_entrp">    -87.49038872 </i>
    <i name="e_0_energy">    -87.49038872 </i>
   </energy>
  </scstep>
  <scstep>
   <time name="diag">    0.09    0.09</time>
   <time name="diis">    0.40    0.40</time>
   <time name="orth">    0.01    0.01</time>
   <time name="total">    0.65    0.65</time>
   <dipole>
    <v name="dipole">      0.31389155       0.26031154      -0.11854396 </v>
    <i name="Tr[quadrupol]">     18.16755156 </i>
    <i name="Echarged">      0.00000000 </i>
    <i name="Edipol_quadrupol">      0.00000000 </i>
    <i name="Eion">      0.00000000 </i>
   </dipole>
   <energy>
    <i name="e_fr_energy">    -87.49039682 </i>
    <i name="e_wo_entrp">    -87.49039682 </i>
    <i name="e_0_energy">    -87.49039682 </i>
   </energy>
  </scstep>
  <scstep>
   <time name="diag">    0.09    0.09</time>
   <time name="diis">    0.36    0.36</time>
   <time name="orth">    0.01    0.01</time>
   <time name="total">    0.61    0.61</time>
   <dipole>
    <v name="dipole">      0.31377309       0.26031582      -0.11847723 </v>
    <i name="Tr[quadrupol]">     18.16861844 </i>
    <i name="Echarged">      0.00000000 </i>
    <i name="Edipol_quadrupol">      0.00000000 </i>
    <i name="Eion">      0.00000000 </i>
   </dipole>
   <energy>
    <i name="e_fr_energy">    -87.49040329 </i>
    <i name="e_wo_entrp">    -87.49040329 </i>
    <i name="e_0_energy">    -87.49040329 </i>
   </energy>
  </scstep>
  <scstep>
   <time name="diag">    0.09    0.09</time>
   <time name="diis">    0.38    0.38</time>
   <time name="orth">    0.01    0.01</time>
   <time name="total">    0.63    0.63</time>
   <dipole>
    <v name="dipole">      0.31365427       0.26030919      -0.11844500 </v>
    <i name="Tr[quadrupol]">     18.16938109 </i>
    <i name="Echarged">      0.00000000 </i>
    <i name="Edipol_quadrupol">      0.00000000 </i>
    <i name="Eion">      0.00000000 </i>
   </dipole>
   <energy>
    <i name="e_fr_energy">    -87.49040768 </i>
    <i name="e_wo_entrp">    -87.49040768 </i>
    <i name="e_0_energy">    -87.49040768 </i>
   </energy>
  </scstep>
  <scstep>
   <time name="diag">    0.09    0.09</time>
   <time name="diis">    0.38    0.39</time>
   <time name="orth">    0.01    0.01</time>
   <time name="total">    0.63    0.64</time>
   <dipole>
    <v name="dipole">      0.31360180       0.26030650      -0.11842834 </v>
    <i name="Tr[quadrupol]">     18.16969259 </i>
    <i name="Echarged">      0.00000000 </i>
    <i name="Edipol_quadrupol">      0.00000000 </i>
    <i name="Eion">      0.00000000 </i>
   </dipole>
   <energy>
    <i name="e_fr_energy">    -87.49040937 </i>
    <i name="e_wo_entrp">    -87.49040937 </i>
    <i name="e_0_energy">    -87.49040937 </i>
   </energy>
  </scstep>
  <scstep>
   <time name="diag">    0.09    0.09</time>
   <time name="diis">    0.37    0.37</time>
   <time name="orth">    0.01    0.01</time>
   <time name="total">    0.62    0.62</time>
   <dipole>
    <v name="dipole">      0.31354943       0.26030607      -0.11840320 </v>
    <i name="Tr[quadrupol]">     18.17003533 </i>
    <i name="Echarged">      0.00000000 </i>
    <i name="Edipol_quadrupol">      0.00000000 </i>
    <i name="Eion">      0.00000000 </i>
   </dipole>
   <energy>
    <i name="e_fr_energy">    -87.49041105 </i>
    <i name="e_wo_entrp">    -87.49041105 </i>
    <i name="e_0_energy">    -87.49041105 </i>
   </energy>
  </scstep>
  <scstep>
   <time name="diag">    0.09    0.09</time>
   <time name="diis">    0.38    0.38</time>
   <time name="orth">    0.01    0.01</time>
   <time name="total">    0.60    0.60</time>
   <dipole>
    <v name="dipole">      0.31353313       0.26030972      -0.11838044 </v>
    <i name="Tr[quadrupol]">     18.17021460 </i>
    <i name="Echarged">      0.00000000 </i>
    <i name="Edipol_quadrupol">      0.00000000 </i>
    <i name="Eion">      0.00000000 </i>
   </dipole>
   <energy>
    <i name="alphaZ">      1.01147321 </i>
    <i name="ewald">   3140.67713977 </i>
    <i name="hartreedc">  -5507.07071914 </i>
    <i name="XCdc">    205.24189107 </i>
    <i name="pawpsdc">   3363.17348453 </i>
    <i name="pawaedc">  -3375.70253548 </i>
    <i name="eentropy">     -0.00000000 </i>
    <i name="bandstr">   -658.14391416 </i>
    <i name="atom">   2743.32276819 </i>
    <i name="e_fr_energy">    -87.49041200 </i>
    <i name="e_wo_entrp">    -87.49041200 </i>
    <i name="e_0_energy">    -87.49041200 </i>
   </energy>
  </scstep>
  <structure>
   <crystal>
    <varray name="basis" >
     <v>      20.00000118       0.00000000       0.00000000 </v>
     <v>       0.00000000      20.00000118       0.00000000 </v>
     <v>       0.00000000       0.00000000      20.00000118 </v>
    </varray>
    <i name="volume">   8000.00141508 </i>
    <varray name="rec_basis" >
     <v>       0.05000000      -0.00000000      -0.00000000 </v>
     <v>       0.00000000       0.05000000      -0.00000000 </v>
     <v>       0.00000000       0.00000000       0.05000000 </v>
    </varray>
   </crystal>
   <varray name="positions" >
    <v>       0.51576295       0.48451418       0.42403343 </v>
    <v>       0.58255260       0.51872294       0.44548508 </v>
    <v>       0.51021351       0.51477843       0.57661225 </v>
    <v>       0.50807811       0.44218213       0.55091664 </v>
    <v>       0.60730808       0.48676092       0.54269862 </v>
    <v>       0.67593176       0.46871048       0.50755558 </v>
    <v>       0.41692977       0.44187217       0.47935717 </v>
    <v>       0.44773728       0.37267637       0.45528221 </v>
    <v>       0.33540506       0.49662767       0.53930154 </v>
    <v>       0.39263528       0.53928403       0.50624103 </v>
    <v>       0.49622530       0.56818136       0.47689922 </v>
    <v>       0.46826259       0.63203721       0.51689537 </v>
    <v>       0.53943393       0.52764041       0.42197771 </v>
    <v>       0.53158958       0.47098346       0.58336190 </v>
    <v>       0.64139780       0.50278070       0.50963882 </v>
    <v>       0.45982856       0.41694017       0.47121067 </v>
    <v>       0.35970595       0.50256718       0.49763999 </v>
    <v>       0.46684240       0.58348400       0.51602265 </v>
   </varray>
  </structure>
  <varray name="forces" >
   <v>       0.00050201       0.00197586       0.00240646 </v>
   <v>      -0.00371054       0.00357792      -0.00024632 </v>
   <v>       0.00318329      -0.00325547       0.00232969 </v>
   <v>       0.00277116       0.00000719       0.00093875 </v>
   <v>       0.00136978      -0.00021102       0.00052745 </v>
   <v>       0.00311744      -0.00548488      -0.00095382 </v>
   <v>      -0.00081292      -0.00083172      -0.00295311 </v>
   <v>      -0.00132665      -0.00234685      -0.00151983 </v>
   <v>      -0.01226803      -0.00558977       0.01208867 </v>
   <v>      -0.00467572      -0.00322370      -0.00307509 </v>
   <v>       0.00154635      -0.00147386       0.00419076 </v>
   <v>       0.00229760      -0.00248387       0.00113282 </v>
   <v>       0.00206051       0.00372831      -0.00322947 </v>
   <v>      -0.00225735       0.00192792       0.00058726 </v>
   <v>      -0.00391358       0.00555091       0.00040479 </v>
   <v>      -0.00178909       0.00024210      -0.00034180 </v>
   <v>       0.01680312       0.00477889      -0.01344556 </v>
   <v>      -0.00289740       0.00311204       0.00115834 </v>
  </varray>
  <varray name="stress" >
   <v>      -0.92169503       0.00482588      -0.00486652 </v>
   <v>       0.00482589      -0.89805157       0.01451891 </v>
   <v>      -0.00486652       0.01451891      -0.95654169 </v>
  </varray>
  <energy>
   <i name="e_fr_energy">    -87.49041200 </i>
   <i name="e_wo_entrp">    -87.49041200 </i>
   <i name="e_0_energy">     -0.00000000 </i>
  </energy>
  <time name="totalsc">   11.12   11.32</time>
 </calculation>
 <calculation>
  <scstep>
   <time name="dav">    0.57    0.57</time>
   <time name="total">    0.72    0.72</time>
   <dipole>
    <v name="dipole">      0.31295775       0.25910587      -0.11900796 </v>
    <i name="Tr[quadrupol]">     18.16652535 </i>
    <i name="Echarged">      0.00000000 </i>
    <i name="Edipol_quadrupol">      0.00000000 </i>
    <i name="Eion">      0.00000000 </i>
   </dipole>
   <energy>
    <i name="alphaZ">      1.01146947 </i>
    <i name="ewald">   3140.64445482 </i>
    <i name="hartreedc">  -5507.07052898 </i>
    <i name="XCdc">    205.24188664 </i>
    <i name="pawpsdc">   3363.17339989 </i>
    <i name="pawaedc">  -3375.70244943 </i>
    <i name="eentropy">     -0.00000000 </i>
    <i name="bandstr">   -658.11149004 </i>
    <i name="atom">   2743.32276819 </i>
    <i name="e_fr_energy">    -87.49048943 </i>
    <i name="e_wo_entrp">    -87.49048943 </i>
    <i name="e_0_energy">    -87.49048943 </i>
   </energy>
  </scstep>
  <scstep>
   <time name="diag">    0.09    0.09</time>
   <time name="diis">    0.44    0.45</time>
   <time name="orth">    0.01    0.01</time>
   <time name="total">    0.69    0.70</time>
   <dipole>
    <v name="dipole">      0.31312045       0.25941932      -0.11883980 </v>
    <i name="Tr[quadrupol]">     18.16718925 </i>
    <i name="Echarged">      0.00000000 </i>
    <i name="Edipol_quadrupol">      0.00000000 </i>
    <i name="Eion">      0.00000000 </i>
   </dipole>
   <energy>
    <i name="e_fr_energy">    -87.49044096 </i>
    <i name="e_wo_entrp">    -87.49044096 </i>
    <i name="e_0_energy">    -87.49044096 </i>
   </energy>
  </scstep>
  <scstep>
   <time name="diag">    0.09    0.09</time>
   <time name="diis">    0.48    0.48</time>
   <time name="orth">    0.01    0.01</time>
   <time name="total">    0.73    0.73</time>
   <dipole>
    <v name="dipole">      0.31338005       0.25992886      -0.11854192 </v>
    <i name="Tr[quadrupol]">     18.16833760 </i>
    <i name="Echarged">      0.00000000 </i>
    <i name="Edipol_quadrupol">      0.00000000 </i>
    <i name="Eion">      0.00000000 </i>
   </dipole>
   <energy>
    <i name="e_fr_energy">    -87.49041828 </i>
    <i name="e_wo_entrp">    -87.49041828 </i>
    <i name="e_0_energy">    -87.49041828 </i>
   </energy>
  </scstep>
  <scstep>
   <time name="diag">    0.09    0.09</time>
   <time name="diis">    0.46    0.46</time>
   <time name="orth">    0.01    0.01</time>
   <time name="total">    0.67    0.67</time>
   <dipole>
    <v name="dipole">      0.31340904       0.25998464      -0.11850735 </v>
    <i name="Tr[quadrupol]">     18.16852819 </i>
    <i name="Echarged">      0.00000000 </i>
    <i name="Edipol_quadrupol">      0.00000000 </i>
    <i name="Eion">      0.00000000 </i>
   </dipole>
   <energy>
    <i name="alphaZ">      1.01146997 </i>
    <i name="ewald">   3140.64445482 </i>
    <i name="hartreedc">  -5507.04994982 </i>
    <i name="XCdc">    205.24184965 </i>
    <i name="pawpsdc">   3363.16967987 </i>
    <i name="pawaedc">  -3375.69888583 </i>
    <i name="eentropy">     -0.00000000 </i>
    <i name="bandstr">   -658.13180457 </i>
    <i name="atom">   2743.32276819 </i>
    <i name="e_fr_energy">    -87.49041771 </i>
    <i name="e_wo_entrp">    -87.49041771 </i>
    <i name="e_0_energy">    -87.49041771 </i>
   </energy>
  </scstep>
  <structure>
   <crystal>
    <varray name="basis" >
     <v>      20.00000118       0.00000000       0.00000000 </v>
     <v>       0.00000000      20.00000118       0.00000000 </v>
     <v>       0.00000000       0.00000000      20.00000118 </v>
    </varray>
    <i name="volume">   8000.00141508 </i>
    <varray name="rec_basis" >
     <v>       0.05000000      -0.00000000      -0.00000000 </v>
     <v>       0.00000000       0.05000000      -0.00000000 </v>
     <v>       0.00000000       0.00000000       0.05000000 </v>
    </varray>
   </crystal>
   <varray name="positions" >
    <v>       0.51576450       0.48452926       0.42403302 </v>
    <v>       0.58255641       0.51873612       0.44548701 </v>
    <v>       0.51021661       0.51477552       0.57660858 </v>
    <v>       0.50808205       0.44218435       0.55091331 </v>
    <v>       0.60730761       0.48676013       0.54269925 </v>
    <v>       0.67592690       0.46869149       0.50754105 </v>
    <v>       0.41693043       0.44186649       0.47935225 </v>
    <v>       0.44773804       0.37267980       0.45527931 </v>
    <v>       0.33539041       0.49662122       0.53930447 </v>
    <v>       0.39263601       0.53927401       0.50624164 </v>
    <v>       0.49622390       0.56818500       0.47690689 </v>
    <v>       0.46826368       0.63203243       0.51690485 </v>
    <v>       0.53943696       0.52765215       0.42197902 </v>
    <v>       0.53158972       0.47098592       0.58336195 </v>
    <v>       0.64140024       0.50277578       0.50964125 </v>
    <v>       0.45983250       0.41694317       0.47120815 </v>
    <v>       0.35970486       0.50256781       0.49763637 </v>
    <v>       0.46683968       0.58348319       0.51603148 </v>
   </varray>
  </structure>
  <varray name="forces" >
   <v>      -0.00003118      -0.00002066       0.00242916 </v>
   <v>      -0.00427147       0.00292169      -0.00043393 </v>
   <v>       0.00085176       0.00149955       0.00196312 </v>
   <v>       0.00284825      -0.00010660       0.00128634 </v>
   <v>       0.00153566      -0.00089240       0.00069358 </v>
   <v>      -0.00132655      -0.00168264      -0.00025226 </v>
   <v>      -0.00122701       0.00049532      -0.00244965 </v>
   <v>      -0.00039833      -0.00256929      -0.00156088 </v>
   <v>      -0.00501524      -0.00339990       0.00081968 </v>
   <v>      -0.00278563       0.00002663      -0.00151882 </v>
   <v>       0.00147671      -0.00186478       0.00415694 </v>
   <v>       0.00202695       0.00187884       0.00148063 </v>
   <v>       0.00324754       0.00567509      -0.00291076 </v>
   <v>      -0.00025199      -0.00262986       0.00063161 </v>
   <v>       0.00037312       0.00267787      -0.00063782 </v>
   <v>      -0.00211083      -0.00089900      -0.00049198 </v>
   <v>       0.00711125      -0.00063764      -0.00361340 </v>
   <v>      -0.00205300      -0.00047223       0.00040843 </v>
  </varray>
  <varray name="stress" >
   <v>      -0.92331915       0.00503774      -0.00365188 </v>
   <v>       0.00503774      -0.89676438       0.01484248 </v>
   <v>      -0.00365189       0.01484248      -0.95929310 </v>
  </varray>
  <energy>
   <i name="e_fr_energy">    -87.49041771 </i>
   <i name="e_wo_entrp">    -87.49041771 </i>
   <i name="e_0_energy">     -0.00000000 </i>
  </energy>
 </calculation>
</modeling>
