VaspCalc                                
           1
    20.000000    0.000000    0.000000
     0.000000   20.000000    0.000000
     0.000000    0.000000   20.000000
   H    O 
  12   6
Direct configuration=     1
   0.51696044  0.48231771  0.42450384
   0.58250409  0.51749296  0.44267829
   0.50958844  0.51448731  0.57599144
   0.50881759  0.44253796  0.55194014
   0.61067104  0.48867021  0.54297044
   0.68202664  0.47599011  0.51539879
   0.41832169  0.43807436  0.47809879
   0.44818364  0.37077486  0.45331244
   0.32000000  0.49750456  0.53770659
   0.39097829  0.53815556  0.50631739
   0.49542619  0.56961846  0.47781379
   0.47029514  0.63315261  0.51581875
   0.53931234  0.52526726  0.42129739
   0.53148534  0.47185586  0.58328284
   0.64368714  0.50445581  0.51036774
   0.46046439  0.41406651  0.47018254
   0.36007474  0.50112251  0.49787849
   0.46704339  0.58519926  0.51557024
Direct configuration=     2
   0.51566464  0.48039029  0.42458202
   0.58476052  0.51736126  0.44376863
   0.50870912  0.51661325  0.57583155
   0.50789108  0.44094277  0.55052170
   0.60865027  0.48805522  0.54461430
   0.68374536  0.47489498  0.51534007
   0.41618050  0.43949427  0.47879111
   0.44796160  0.36894092  0.45262045
   0.33320555  0.49982356  0.52620240
   0.39152537  0.54062896  0.50856160
   0.49689175  0.56847987  0.47582104
   0.47019695  0.63510642  0.51605651
   0.53845427  0.52735359  0.42009877
   0.53342211  0.47129387  0.58493333
   0.64384181  0.50611487  0.50873242
   0.46269531  0.41462509  0.47038513
   0.34647014  0.49649229  0.50703214
   0.46557416  0.58413235  0.51723667
Direct configuration=     3
   0.51683086  0.48212497  0.42451166
   0.58272973  0.51747979  0.44278732
   0.50950051  0.51469990  0.57597545
   0.50872494  0.44237844  0.55179829
   0.61046896  0.48860871  0.54313482
   0.68219851  0.47588059  0.51539291
   0.41810757  0.43821635  0.47816802
   0.44816144  0.37059146  0.45324324
   0.32132056  0.49773646  0.53655617
   0.39103300  0.53840290  0.50654181
   0.49557275  0.56950460  0.47761451
   0.47028532  0.63334799  0.51584252
   0.53922653  0.52547589  0.42117753
   0.53167902  0.47179966  0.58344789
   0.64370261  0.50462171  0.51020420
   0.46068748  0.41412237  0.47020280
   0.35871428  0.50065949  0.49879385
   0.46689647  0.58509257  0.51573688
Direct configuration=     4
   0.51659184  0.48194608  0.42449972
   0.58307590  0.51754712  0.44295658
   0.50947231  0.51495990  0.57602558
   0.50868496  0.44213159  0.55166959
   0.61006544  0.48859025  0.54334873
   0.68242075  0.47579429  0.51528439
   0.41779539  0.43844245  0.47836386
   0.44823146  0.37039318  0.45317982
   0.32496727  0.49847737  0.53355505
   0.38986778  0.53774345  0.50706651
   0.49585839  0.56915019  0.47720236
   0.47016659  0.63353863  0.51595684
   0.53914396  0.52563393  0.42107303
   0.53182633  0.47177845  0.58353248
   0.64376606  0.50470695  0.51007570
   0.46078466  0.41421468  0.47019052
   0.35651370  0.50068316  0.50120364
   0.46660774  0.58501216  0.51594547
Direct configuration=     5
   0.51664358  0.48198534  0.42450321
   0.58298906  0.51753446  0.44291638
   0.50947227  0.51491517  0.57601142
   0.50869284  0.44218433  0.55169550
   0.61016335  0.48859902  0.54329058
   0.68238251  0.47580336  0.51530818
   0.41787112  0.43837916  0.47832066
   0.44821405  0.37043575  0.45319364
   0.32325012  0.49827613  0.53518603
   0.39019022  0.53800890  0.50700548
   0.49576657  0.56924031  0.47733003
   0.47019071  0.63349892  0.51593395
   0.53917456  0.52560049  0.42110521
   0.53180575  0.47177507  0.58351764
   0.64372344  0.50469234  0.51011323
   0.46074374  0.41421622  0.47019887
   0.35786533  0.50059861  0.49964571
   0.46670131  0.58500027  0.51585416
Direct configuration=     6
   0.51659895  0.48198021  0.42449854
   0.58303305  0.51756210  0.44294106
   0.50948292  0.51495221  0.57602889
   0.50870399  0.44214449  0.55168811
   0.61008991  0.48861259  0.54330849
   0.68241243  0.47579954  0.51527240
   0.41782207  0.43841311  0.47836956
   0.44824447  0.37042391  0.45319324
   0.32375467  0.49845011  0.53488207
   0.38994066  0.53792853  0.50717951
   0.49579478  0.56916366  0.47727942
   0.47015299  0.63350109  0.51596771
   0.53918177  0.52559589  0.42111061
   0.53181181  0.47177932  0.58350467
   0.64372171  0.50467604  0.51012239
   0.46070901  0.41423621  0.47018994
   0.35770894  0.50053523  0.49975215
   0.46667639  0.58498959  0.51584108
Direct configuration=     7
   0.51651227  0.48199112  0.42449051
   0.58310229  0.51762502  0.44298744
   0.50951444  0.51501696  0.57606567
   0.50873839  0.44207168  0.55168216
   0.60994862  0.48864918  0.54332563
   0.68245952  0.47579790  0.51519040
   0.41772381  0.43847026  0.47847902
   0.44831433  0.37041598  0.45319990
   0.32449129  0.49880153  0.53460573
   0.38947967  0.53785482  0.50757809
   0.49582097  0.56900846  0.47720766
   0.47006765  0.63347867  0.51604324
   0.53921439  0.52556651  0.42114158
   0.53181556  0.47179539  0.58346218
   0.64369903  0.50462399  0.51016416
   0.46060554  0.41429120  0.47017173
   0.35767942  0.50032943  0.49956777
   0.46665330  0.58495575  0.51576700
Direct configuration=     8
   0.51641758  0.48201851  0.42448867
   0.58317153  0.51769508  0.44304789
   0.50955718  0.51508163  0.57610250
   0.50878619  0.44199892  0.55167755
   0.60978652  0.48868743  0.54333750
   0.68249013  0.47579914  0.51508873
   0.41758865  0.43852845  0.47862282
   0.44840056  0.37042635  0.45321674
   0.32511770  0.49917130  0.53454197
   0.38903240  0.53784314  0.50802823
   0.49582936  0.56882572  0.47713396
   0.46996372  0.63341890  0.51613384
   0.53926004  0.52552960  0.42118908
   0.53182417  0.47182080  0.58340723
   0.64365943  0.50455756  0.51021869
   0.46047756  0.41436707  0.47015132
   0.35784814  0.50007277  0.49908069
   0.46662964  0.58490146  0.51566246
Direct configuration=     9
   0.51633472  0.48209157  0.42453649
   0.58321843  0.51773823  0.44317294
   0.50961737  0.51512563  0.57609908
   0.50887071  0.44198044  0.55166912
   0.60960373  0.48868358  0.54333220
   0.68242839  0.47577673  0.51495387
   0.41735526  0.43854164  0.47886854
   0.44851033  0.37049701  0.45326739
   0.32568228  0.49931153  0.53460169
   0.38887794  0.53789540  0.50824900
   0.49576639  0.56859195  0.47703337
   0.46983378  0.63324857  0.51624058
   0.53932579  0.52552639  0.42127961
   0.53188655  0.47185604  0.58334123
   0.64351466  0.50451337  0.51027060
   0.46030106  0.41457020  0.47016376
   0.35817106  0.50010396  0.49851310
   0.46654206  0.58469160  0.51553731
Direct configuration=    10
   0.51629681  0.48215791  0.42458485
   0.58324002  0.51774908  0.44327672
   0.50966203  0.51513778  0.57607911
   0.50892831  0.44198583  0.55165357
   0.60947352  0.48865294  0.54334177
   0.68230856  0.47578418  0.51485885
   0.41716748  0.43855068  0.47904609
   0.44859579  0.37061835  0.45333166
   0.32600067  0.49928424  0.53464457
   0.38897934  0.53802634  0.50829027
   0.49570860  0.56843684  0.47695921
   0.46974567  0.63303647  0.51630498
   0.53935873  0.52553546  0.42134024
   0.53194375  0.47188939  0.58331054
   0.64345508  0.50447792  0.51028121
   0.46018771  0.41466573  0.47016710
   0.35831997  0.50017106  0.49818807
   0.46646846  0.58458365  0.51547103
Direct configuration=    11
   0.51625105  0.48224526  0.42466448
   0.58325635  0.51774976  0.44343251
   0.50972058  0.51515386  0.57603610
   0.50901248  0.44201261  0.55162963
   0.60931840  0.48860098  0.54333824
   0.68216370  0.47574997  0.51473475
   0.41691720  0.43854863  0.47928870
   0.44869338  0.37074241  0.45340524
   0.32641674  0.49914729  0.53466795
   0.38921581  0.53819077  0.50823022
   0.49561254  0.56823264  0.47686020
   0.46963281  0.63279140  0.51638706
   0.53940516  0.52557394  0.42142777
   0.53203597  0.47192331  0.58327295
   0.64328871  0.50447417  0.51029325
   0.46003550  0.41488523  0.47021918
   0.35851224  0.50039356  0.49785665
   0.46635191  0.58432804  0.51538498
Direct configuration=    12
   0.51614672  0.48247473  0.42488456
   0.58327403  0.51773353  0.44385649
   0.50987561  0.51518761  0.57590318
   0.50922930  0.44209998  0.55155446
   0.60891758  0.48843793  0.54334277
   0.68170014  0.47568034  0.51440766
   0.41626109  0.43858385  0.47988503
   0.44894435  0.37113600  0.45362543
   0.32748434  0.49867974  0.53463278
   0.38996249  0.53859117  0.50791087
   0.49537762  0.56771067  0.47658270
   0.46934433  0.63208910  0.51658161
   0.53950932  0.52569689  0.42164507
   0.53227529  0.47199784  0.58319664
   0.64290785  0.50446087  0.51029288
   0.45966881  0.41539006  0.47038789
   0.35893049  0.50109889  0.49722188
   0.46603117  0.58369465  0.51521798
Direct configuration=    13
   0.51602016  0.48276049  0.42512827
   0.58324929  0.51773605  0.44439039
   0.51010121  0.51520877  0.57574156
   0.50945374  0.44215372  0.55141211
   0.60850951  0.48828241  0.54329040
   0.68130876  0.47541759  0.51400100
   0.41571432  0.43877759  0.48035590
   0.44915209  0.37146305  0.45384254
   0.32887316  0.49832676  0.53450720
   0.39102338  0.53926785  0.50759694
   0.49512440  0.56713469  0.47633840
   0.46899814  0.63140064  0.51679485
   0.53955123  0.52582161  0.42188199
   0.53248384  0.47209734  0.58315668
   0.64221322  0.50456176  0.51031675
   0.45921134  0.41610912  0.47086745
   0.35903347  0.50137282  0.49650469
   0.46581926  0.58285156  0.51500275
Direct configuration=    14
   0.51610955  0.48255867  0.42495615
   0.58326676  0.51773427  0.44401331
   0.50994187  0.51519382  0.57585571
   0.50929522  0.44211576  0.55151265
   0.60879772  0.48839225  0.54332739
   0.68158518  0.47560316  0.51428821
   0.41610049  0.43864076  0.48002333
   0.44900537  0.37123206  0.45368920
   0.32789227  0.49857606  0.53459590
   0.39027410  0.53878993  0.50781866
   0.49530324  0.56754149  0.47651094
   0.46924264  0.63188688  0.51664424
   0.53952163  0.52573352  0.42171466
   0.53233655  0.47202707  0.58318490
   0.64270382  0.50449051  0.51029989
   0.45953444  0.41560127  0.47052875
   0.35896074  0.50117935  0.49701122
   0.46596892  0.58344701  0.51515476
Direct configuration=    15
   0.51608155  0.48262649  0.42503748
   0.58323795  0.51771805  0.44416991
   0.50999544  0.51520269  0.57579210
   0.50936267  0.44216036  0.55147699
   0.60868012  0.48832154  0.54333086
   0.68138596  0.47556653  0.51417433
   0.41591365  0.43870532  0.48015478
   0.44906298  0.37138434  0.45377394
   0.32821631  0.49835240  0.53453389
   0.39061743  0.53886811  0.50755805
   0.49523853  0.56738800  0.47642099
   0.46915374  0.63166032  0.51668929
   0.53954030  0.52580107  0.42177879
   0.53240490  0.47202510  0.58317956
   0.64257930  0.50450266  0.51027705
   0.45944845  0.41574772  0.47065913
   0.35904672  0.50150369  0.49698255
   0.46587450  0.58320943  0.51514018
Direct configuration=    16
   0.51606310  0.48266152  0.42507682
   0.58319113  0.51771831  0.44426952
   0.51003824  0.51520218  0.57575105
   0.50938368  0.44217436  0.55144006
   0.60862718  0.48828778  0.54332930
   0.68126439  0.47551858  0.51409387
   0.41587510  0.43883080  0.48012567
   0.44905770  0.37147529  0.45382863
   0.32841913  0.49826567  0.53450431
   0.39079874  0.53883561  0.50735665
   0.49524248  0.56731729  0.47637781
   0.46910034  0.63153760  0.51669684
   0.53951922  0.52583905  0.42180265
   0.53241025  0.47201060  0.58319980
   0.64249947  0.50451894  0.51025833
   0.45944036  0.41579467  0.47082661
   0.35904166  0.50165079  0.49702053
   0.46586835  0.58310481  0.51517141
Direct configuration=    17
   0.51603289  0.48269170  0.42511469
   0.58313358  0.51772887  0.44437503
   0.51008502  0.51520917  0.57571047
   0.50940601  0.44218672  0.55140589
   0.60856213  0.48825770  0.54333130
   0.68113234  0.47546667  0.51399690
   0.41585234  0.43898511  0.48007696
   0.44904524  0.37157226  0.45388942
   0.32863923  0.49820994  0.53453121
   0.39096641  0.53880297  0.50717715
   0.49525102  0.56724408  0.47634599
   0.46903961  0.63144238  0.51670625
   0.53949965  0.52587891  0.42183084
   0.53240571  0.47198131  0.58321622
   0.64242185  0.50452792  0.51024038
   0.45943151  0.41584080  0.47102033
   0.35905146  0.50175221  0.49696933
   0.46588453  0.58296514  0.51519152
Direct configuration=    18
   0.51594016  0.48279438  0.42521972
   0.58295761  0.51777583  0.44469278
   0.51023947  0.51521035  0.57559805
   0.50945384  0.44220263  0.55129548
   0.60836677  0.48818143  0.54333314
   0.68075043  0.47529155  0.51368743
   0.41581585  0.43948187  0.47990269
   0.44899444  0.37187695  0.45408292
   0.32930870  0.49809103  0.53468812
   0.39144113  0.53870720  0.50667855
   0.49530363  0.56702296  0.47625502
   0.46884384  0.63108265  0.51673036
   0.53942044  0.52597077  0.42191217
   0.53237905  0.47191762  0.58327268
   0.64216761  0.50455170  0.51020042
   0.45941320  0.41595787  0.47161176
   0.35908135  0.50197489  0.49670453
   0.46596300  0.58265215  0.51526406
Direct configuration=    19
   0.51577482  0.48286947  0.42531743
   0.58268747  0.51790110  0.44507156
   0.51042815  0.51522619  0.57548843
   0.50946113  0.44220551  0.55120997
   0.60809358  0.48812468  0.54336825
   0.68022301  0.47505603  0.51320497
   0.41596116  0.44022870  0.47955636
   0.44883343  0.37224039  0.45434953
   0.33029007  0.49810369  0.53502908
   0.39183645  0.53843864  0.50611181
   0.49545416  0.56680922  0.47624329
   0.46858848  0.63091699  0.51674259
   0.53929074  0.52606340  0.42201094
   0.53229560  0.47175428  0.58331812
   0.64190804  0.50451791  0.51017012
   0.45944758  0.41610309  0.47238708
   0.35906477  0.50210201  0.49621688
   0.46620188  0.58208253  0.51533345
Direct configuration=    20
   0.51579065  0.48285695  0.42529853
   0.58271124  0.51789746  0.44502392
   0.51041274  0.51521034  0.57550999
   0.50943623  0.44218527  0.55121367
   0.60813205  0.48814063  0.54336283
   0.68031316  0.47504690  0.51324656
   0.41598260  0.44017620  0.47956447
   0.44883402  0.37220963  0.45433007
   0.33018737  0.49813625  0.53503124
   0.39176927  0.53845942  0.50618872
   0.49547528  0.56683738  0.47624056
   0.46860942  0.63084044  0.51673201
   0.53929190  0.52604016  0.42199070
   0.53229765  0.47178788  0.58332544
   0.64190188  0.50453961  0.51018050
   0.45946010  0.41605986  0.47229752
   0.35904088  0.50202829  0.49623281
   0.46619408  0.58229117  0.51536032
Direct configuration=    21
   0.51578621  0.48284239  0.42528121
   0.58270809  0.51791610  0.44500251
   0.51040953  0.51519742  0.57553154
   0.50940055  0.44216444  0.55122821
   0.60813863  0.48815694  0.54337153
   0.68033141  0.47502778  0.51322586
   0.41605156  0.44020015  0.47953156
   0.44879987  0.37219689  0.45433586
   0.33019291  0.49819138  0.53508937
   0.39169457  0.53843134  0.50622498
   0.49551987  0.56686588  0.47626676
   0.46860923  0.63085183  0.51672034
   0.53927122  0.52601671  0.42197815
   0.53228566  0.47179029  0.58332635
   0.64190590  0.50453372  0.51019156
   0.45948852  0.41604296  0.47226280
   0.35901285  0.50195054  0.49618366
   0.46623392  0.58236709  0.51537762
Direct configuration=    22
   0.51576978  0.48282534  0.42527121
   0.58268610  0.51794390  0.44500145
   0.51041323  0.51518538  0.57555221
   0.50935651  0.44214411  0.55125025
   0.60812522  0.48816634  0.54338745
   0.68030590  0.47498399  0.51315953
   0.41613222  0.44027045  0.47949311
   0.44874621  0.37220504  0.45436562
   0.33027709  0.49823098  0.53517125
   0.39165276  0.53839478  0.50620619
   0.49558092  0.56688622  0.47630042
   0.46859011  0.63087035  0.51670882
   0.53924270  0.52600126  0.42197219
   0.53227614  0.47177549  0.58332560
   0.64188632  0.50452660  0.51020225
   0.45952982  0.41604930  0.47224613
   0.35897979  0.50189518  0.49611491
   0.46628969  0.58238915  0.51540127
Direct configuration=    23
   0.51574534  0.48279742  0.42526227
   0.58264717  0.51798508  0.44500420
   0.51041814  0.51516124  0.57559173
   0.50927708  0.44211197  0.55129870
   0.60809270  0.48816746  0.54342155
   0.68021831  0.47490817  0.51302408
   0.41625959  0.44038703  0.47945869
   0.44865150  0.37222619  0.45443004
   0.33045470  0.49825185  0.53529140
   0.39161738  0.53834799  0.50611977
   0.49568610  0.56691559  0.47635694
   0.46854935  0.63089186  0.51669111
   0.53919337  0.52598202  0.42196436
   0.53227054  0.47174866  0.58332314
   0.64185855  0.50451000  0.51021527
   0.45959861  0.41608452  0.47218434
   0.35892948  0.50185751  0.49604411
   0.46637261  0.58240927  0.51544815
Direct configuration=    24
   0.51566993  0.48270428  0.42526356
   0.58249285  0.51809211  0.44503155
   0.51042708  0.51510179  0.57572123
   0.50902967  0.44202380  0.55147628
   0.60800777  0.48813768  0.54349361
   0.67994086  0.47452884  0.51252829
   0.41662774  0.44079289  0.47940658
   0.44834080  0.37232562  0.45468104
   0.33107700  0.49817090  0.53572269
   0.39166347  0.53827911  0.50566942
   0.49600792  0.56698654  0.47654036
   0.46839121  0.63095529  0.51664170
   0.53905882  0.52597123  0.42195692
   0.53227240  0.47162158  0.58332653
   0.64157009  0.50455368  0.51026580
   0.45980988  0.41625319  0.47194621
   0.35883400  0.50187364  0.49585228
   0.46661900  0.58237167  0.51560583
Direct configuration=    25
   0.51568377  0.48270166  0.42525879
   0.58250553  0.51808677  0.44500811
   0.51041753  0.51508192  0.57574838
   0.50900306  0.44201346  0.55150312
   0.60799399  0.48812013  0.54352027
   0.67985561  0.47456919  0.51250103
   0.41664797  0.44076905  0.47944420
   0.44832261  0.37230674  0.45468993
   0.33109113  0.49814033  0.53571021
   0.39165788  0.53831289  0.50564905
   0.49602567  0.56700642  0.47655763
   0.46839225  0.63095744  0.51663747
   0.53904531  0.52595791  0.42194560
   0.53227513  0.47163433  0.58332846
   0.64167117  0.50450911  0.51025239
   0.45982006  0.41627263  0.47184391
   0.35881556  0.50188280  0.49591239
   0.46661627  0.58242104  0.51561892
Direct configuration=    26
   0.51568915  0.48269631  0.42526605
   0.58249236  0.51808236  0.44500255
   0.51041194  0.51506548  0.57578143
   0.50896709  0.44200302  0.55154361
   0.60797947  0.48809071  0.54353113
   0.67975380  0.47452344  0.51241021
   0.41667849  0.44080225  0.47948532
   0.44828085  0.37231529  0.45473556
   0.33119016  0.49805926  0.53575043
   0.39171250  0.53835929  0.50553305
   0.49605878  0.56701530  0.47658498
   0.46836788  0.63095765  0.51663361
   0.53903044  0.52596395  0.42194352
   0.53227929  0.47162100  0.58333840
   0.64166238  0.50450636  0.51024950
   0.45983695  0.41632143  0.47174064
   0.35882160  0.50194278  0.49595544
   0.46662738  0.58241795  0.51564444
Direct configuration=    27
   0.51568946  0.48269127  0.42527730
   0.58246004  0.51807989  0.44500288
   0.51040860  0.51504071  0.57583864
   0.50890786  0.44198207  0.55160647
   0.60795288  0.48804247  0.54353546
   0.67958910  0.47440399  0.51223000
   0.41674104  0.44089988  0.47952503
   0.44819996  0.37233883  0.45482256
   0.33140177  0.49793726  0.53586264
   0.39180492  0.53843276  0.50533434
   0.49612006  0.56702299  0.47663319
   0.46831707  0.63095237  0.51662685
   0.53900433  0.52597870  0.42194349
   0.53227124  0.47158634  0.58336914
   0.64160145  0.50452068  0.51025003
   0.45986367  0.41640184  0.47160544
   0.35884605  0.50202365  0.49597656
   0.46666101  0.58240812  0.51568984
Direct configuration=    28
   0.51569137  0.48271562  0.42527360
   0.58245353  0.51806064  0.44499032
   0.51040151  0.51501017  0.57592940
   0.50886396  0.44195320  0.55166209
   0.60792204  0.48797750  0.54349431
   0.67939115  0.47422648  0.51198705
   0.41678055  0.44102776  0.47953649
   0.44811618  0.37235546  0.45491886
   0.33172302  0.49782437  0.53600431
   0.39187279  0.53857182  0.50518502
   0.49615095  0.56702370  0.47668281
   0.46826720  0.63096348  0.51662419
   0.53899105  0.52600122  0.42194250
   0.53221006  0.47154211  0.58346572
   0.64154042  0.50454383  0.51025013
   0.45985329  0.41646132  0.47147229
   0.35892757  0.50206122  0.49598531
   0.46668388  0.58242393  0.51572546
Direct configuration=    29
   0.51566511  0.48278440  0.42523646
   0.58244082  0.51799832  0.44493054
   0.51034656  0.51494172  0.57624786
   0.50875552  0.44189154  0.55185687
   0.60778148  0.48775239  0.54334627
   0.67871240  0.47360694  0.51113309
   0.41688307  0.44144895  0.47951882
   0.44780989  0.37231374  0.45519695
   0.33283550  0.49746541  0.53653690
   0.39200732  0.53899476  0.50475128
   0.49622034  0.56702566  0.47682398
   0.46812248  0.63105178  0.51661371
   0.53901455  0.52611427  0.42195260
   0.53196719  0.47131238  0.58381259
   0.64139489  0.50460562  0.51022259
   0.45981587  0.41672940  0.47112536
   0.35934930  0.50223621  0.49598398
   0.46671823  0.58247035  0.51584001
Direct configuration=    30
   0.51567021  0.48281594  0.42521584
   0.58249089  0.51799626  0.44493233
   0.51035090  0.51493660  0.57621768
   0.50879714  0.44190004  0.55178820
   0.60780669  0.48779402  0.54331890
   0.67885310  0.47366639  0.51125347
   0.41680624  0.44137357  0.47947478
   0.44788830  0.37234613  0.45514487
   0.33272287  0.49756111  0.53641691
   0.39195496  0.53897908  0.50493822
   0.49615238  0.56702233  0.47678063
   0.46817310  0.63105089  0.51661848
   0.53902680  0.52609232  0.42194966
   0.53196512  0.47136912  0.58381647
   0.64141938  0.50459487  0.51023005
   0.45978110  0.41659566  0.47122333
   0.35930454  0.50214797  0.49601087
   0.46667678  0.58250152  0.51579918
Direct configuration=    31
   0.51566717  0.48282815  0.42520056
   0.58251263  0.51799839  0.44493122
   0.51034497  0.51493452  0.57621477
   0.50881216  0.44190908  0.55176727
   0.60780568  0.48780821  0.54331077
   0.67888745  0.47368290  0.51127920
   0.41678363  0.44134133  0.47944573
   0.44790496  0.37233629  0.45511875
   0.33269020  0.49759180  0.53640167
   0.39193143  0.53897348  0.50501652
   0.49612182  0.56702691  0.47676556
   0.46819762  0.63106119  0.51661807
   0.53903724  0.52608806  0.42194976
   0.53196011  0.47137715  0.58381875
   0.64144756  0.50457584  0.51022633
   0.45976743  0.41657028  0.47127636
   0.35931175  0.50212440  0.49600702
   0.46665670  0.58251586  0.51578155
Direct configuration=    32
   0.51564559  0.48286447  0.42514569
   0.58255404  0.51800516  0.44492269
   0.51030804  0.51490988  0.57627631
   0.50881100  0.44192671  0.55175582
   0.60776880  0.48780770  0.54327377
   0.67884972  0.47357149  0.51115699
   0.41674872  0.44134336  0.47935679
   0.44787837  0.37232928  0.45511568
   0.33284168  0.49758133  0.53647173
   0.39192717  0.53902586  0.50511753
   0.49606202  0.56705294  0.47675532
   0.46824223  0.63110859  0.51660821
   0.53907371  0.52610724  0.42195531
   0.53192147  0.47134480  0.58386947
   0.64146652  0.50453254  0.51020695
   0.45974763  0.41653584  0.47135297
   0.35938364  0.50213018  0.49602747
   0.46661017  0.58256647  0.51576116
Direct configuration=    33
   0.51563605  0.48300473  0.42500756
   0.58262278  0.51802503  0.44494068
   0.51022034  0.51477025  0.57652046
   0.50868937  0.44191596  0.55176687
   0.60766751  0.48775821  0.54319875
   0.67851941  0.47314124  0.51063269
   0.41677866  0.44145642  0.47916363
   0.44771506  0.37233458  0.45519792
   0.33343492  0.49738069  0.53684495
   0.39208652  0.53921318  0.50513896
   0.49599257  0.56714377  0.47678104
   0.46831647  0.63123136  0.51656900
   0.53905359  0.52614445  0.42194804
   0.53185075  0.47130267  0.58399169
   0.64144584  0.50438527  0.51015024
   0.45971645  0.41654907  0.47143288
   0.35955387  0.50228083  0.49609047
   0.46654036  0.58270611  0.51575403
Direct configuration=    34
   0.51561830  0.48299157  0.42498775
   0.58260586  0.51803440  0.44493561
   0.51019129  0.51478041  0.57655009
   0.50868247  0.44193337  0.55178419
   0.60765420  0.48775300  0.54319458
   0.67849030  0.47306768  0.51056468
   0.41677362  0.44147467  0.47913494
   0.44769675  0.37234553  0.45520918
   0.33352088  0.49735502  0.53687923
   0.39211395  0.53922938  0.50514860
   0.49598064  0.56715983  0.47678326
   0.46833236  0.63125573  0.51656235
   0.53909220  0.52618172  0.42195637
   0.53184911  0.47125000  0.58398217
   0.64142925  0.50437242  0.51013541
   0.45972296  0.41652881  0.47144997
   0.35955419  0.50230548  0.49612264
   0.46653219  0.58272483  0.51574885
Direct configuration=    35
   0.51561041  0.48301363  0.42493760
   0.58258144  0.51805192  0.44494628
   0.51014118  0.51474767  0.57665420
   0.50861822  0.44193596  0.55181290
   0.60762304  0.48772521  0.54318373
   0.67834277  0.47285407  0.51033919
   0.41679963  0.44154632  0.47907463
   0.44762498  0.37236589  0.45525702
   0.33377910  0.49724457  0.53703965
   0.39221924  0.53928488  0.50511272
   0.49597586  0.56720337  0.47680035
   0.46835934  0.63131294  0.51654331
   0.53910609  0.52623499  0.42195854
   0.53184711  0.47119423  0.58398001
   0.64137966  0.50432292  0.51010014
   0.45973357  0.41652275  0.47146084
   0.35957500  0.50240312  0.49617866
   0.46652387  0.58277940  0.51575012
Direct configuration=    36
   0.51561567  0.48307273  0.42485370
   0.58254810  0.51807566  0.44497261
   0.51006731  0.51468438  0.57683212
   0.50850865  0.44192550  0.55184521
   0.60758044  0.48767266  0.54316100
   0.67808103  0.47250603  0.50997384
   0.41684305  0.44166795  0.47898016
   0.44751362  0.37238351  0.45532751
   0.33420563  0.49707072  0.53731238
   0.39238119  0.53937536  0.50507509
   0.49596937  0.56727114  0.47682295
   0.46840465  0.63141228  0.51651425
   0.53910416  0.52631374  0.42195255
   0.53183804  0.47112925  0.58398138
   0.64131374  0.50423194  0.51003564
   0.45973724  0.41651780  0.47148082
   0.35961467  0.50255348  0.49625955
   0.46651396  0.58287972  0.51574910
Direct configuration=    37
   0.51565301  0.48316963  0.42473901
   0.58248003  0.51810941  0.44502667
   0.50998179  0.51462119  0.57706455
   0.50837947  0.44189783  0.55185279
   0.60756796  0.48759287  0.54311463
   0.67773937  0.47204634  0.50955695
   0.41688465  0.44182384  0.47887866
   0.44741122  0.37236832  0.45538056
   0.33473550  0.49689605  0.53765798
   0.39252272  0.53944342  0.50513504
   0.49596545  0.56735194  0.47682245
   0.46847782  0.63157659  0.51648219
   0.53909259  0.52643819  0.42192972
   0.53181751  0.47106623  0.58394848
   0.64124375  0.50409694  0.50992814
   0.45970324  0.41649177  0.47152791
   0.35966196  0.50271460  0.49635482
   0.46652247  0.58303868  0.51572933
Direct configuration=    38
   0.51571900  0.48337641  0.42451520
   0.58234204  0.51823000  0.44517811
   0.50984474  0.51453389  0.57744707
   0.50813239  0.44186039  0.55182260
   0.60749681  0.48741367  0.54306502
   0.67705957  0.47118923  0.50881319
   0.41693398  0.44208576  0.47876371
   0.44724026  0.37238443  0.45548074
   0.33567579  0.49658527  0.53829651
   0.39281882  0.53963688  0.50529854
   0.49600026  0.56753925  0.47681468
   0.46861133  0.63184419  0.51640610
   0.53902667  0.52666049  0.42186930
   0.53179394  0.47093122  0.58387893
   0.64122282  0.50378962  0.50967424
   0.45966298  0.41641852  0.47154663
   0.35963842  0.50287093  0.49655837
   0.46662068  0.58339367  0.51570093
Direct configuration=    39
   0.51567166  0.48322806  0.42467576
   0.58244104  0.51814349  0.44506946
   0.50994306  0.51459652  0.57717264
   0.50830965  0.44188725  0.55184426
   0.60754786  0.48754223  0.54310061
   0.67754728  0.47180414  0.50934678
   0.41689859  0.44189785  0.47884618
   0.44736291  0.37237287  0.45540887
   0.33500120  0.49680823  0.53783842
   0.39260639  0.53949809  0.50518124
   0.49597529  0.56740487  0.47682025
   0.46851555  0.63165221  0.51646069
   0.53907397  0.52650101  0.42191264
   0.53181085  0.47102808  0.58392882
   0.64123783  0.50401010  0.50985639
   0.45969186  0.41647107  0.47153320
   0.35965531  0.50275878  0.49641234
   0.46655022  0.58313899  0.51572130
Direct configuration=    40
   0.51570463  0.48330975  0.42458938
   0.58238508  0.51818289  0.44512414
   0.50989873  0.51455677  0.57732318
   0.50822549  0.44186605  0.55182167
   0.60755238  0.48748182  0.54305493
   0.67731613  0.47146709  0.50908387
   0.41691907  0.44199004  0.47879778
   0.44730828  0.37234334  0.45542501
   0.33534219  0.49670989  0.53808702
   0.39266233  0.53952531  0.50527731
   0.49598184  0.56746790  0.47680483
   0.46857274  0.63178683  0.51643625
   0.53905687  0.52659379  0.42188959
   0.53178902  0.47099933  0.58389682
   0.64119649  0.50390201  0.50977483
   0.45965290  0.41646050  0.47156651
   0.35969702  0.50284293  0.49647379
   0.46657931  0.58325761  0.51570296
Direct configuration=    41
   0.51571027  0.48334311  0.42455736
   0.58235999  0.51821928  0.44515684
   0.50990339  0.51454814  0.57734676
   0.50820579  0.44186801  0.55179141
   0.60755400  0.48746128  0.54303211
   0.67724777  0.47135419  0.50902443
   0.41691745  0.44199481  0.47881137
   0.44730301  0.37233653  0.45541936
   0.33541569  0.49669454  0.53815448
   0.39264480  0.53951644  0.50533366
   0.49600040  0.56750022  0.47678770
   0.46859252  0.63183302  0.51642236
   0.53904621  0.52662490  0.42187977
   0.53177640  0.47099578  0.58387905
   0.64120059  0.50384519  0.50975035
   0.45963786  0.41646271  0.47156159
   0.35971041  0.50284421  0.49651833
   0.46661398  0.58330147  0.51570294
Direct configuration=    42
   0.51570704  0.48344175  0.42445702
   0.58228667  0.51834968  0.44525968
   0.50991985  0.51453416  0.57739608
   0.50814486  0.44189126  0.55169534
   0.60753082  0.48739549  0.54296919
   0.67705412  0.47097796  0.50882632
   0.41691038  0.44199383  0.47886785
   0.44727467  0.37233459  0.45541140
   0.33561204  0.49663033  0.53839414
   0.39261590  0.53952240  0.50548369
   0.49606538  0.56761736  0.47674487
   0.46864868  0.63196476  0.51637109
   0.53901721  0.52672024  0.42185540
   0.53174350  0.47095723  0.58383512
   0.64120744  0.50367778  0.50968012