       N       E                     dE             d eps       ncg     rms          rms(c)
DAV:   1     0.517402100101E+03    0.51740E+03   -0.85836E+03    88   0.539E+02
DAV:   2     0.227923425525E+03   -0.28948E+03   -0.27522E+03   128   0.111E+02
DAV:   3    -0.398696976386E+02   -0.26779E+03   -0.26359E+03   120   0.105E+02
DAV:   4    -0.955770779572E+02   -0.55707E+02   -0.55592E+02    84   0.664E+01
DAV:   5    -0.967027465315E+02   -0.11257E+01   -0.11252E+01    88   0.125E+01    0.182E+01
RMM:   6    -0.875521905784E+02    0.91506E+01   -0.35733E+01    96   0.248E+01    0.713E+00
RMM:   7    -0.871759639635E+02    0.37623E+00   -0.19057E+00    96   0.465E+00    0.460E+00
RMM:   8    -0.869260970021E+02    0.24987E+00   -0.50819E-01    96   0.386E+00    0.730E-01
RMM:   9    -0.868930010252E+02    0.33096E-01   -0.17351E-01    96   0.141E+00    0.365E-01
RMM:  10    -0.868893623988E+02    0.36386E-02   -0.17509E-02    92   0.470E-01    0.184E-01
RMM:  11    -0.868904622519E+02   -0.10999E-02   -0.77561E-03    92   0.345E-01    0.958E-02
RMM:  12    -0.869045145084E+02   -0.14052E-01   -0.10256E-02    90   0.278E-01    0.826E-02
RMM:  13    -0.869116190651E+02   -0.71046E-02   -0.26490E-03    90   0.193E-01    0.349E-02
RMM:  14    -0.869167567619E+02   -0.51377E-02   -0.76052E-04    89   0.870E-02    0.442E-02
RMM:  15    -0.869196393481E+02   -0.28826E-02   -0.91607E-04    89   0.100E-01    0.192E-02
RMM:  16    -0.869213288793E+02   -0.16895E-02   -0.29911E-04    87   0.561E-02    0.848E-03
RMM:  17    -0.869217773782E+02   -0.44850E-03   -0.82986E-05    94   0.287E-02    0.103E-02
RMM:  18    -0.869220606274E+02   -0.28325E-03   -0.19764E-05    92   0.148E-02    0.328E-03
RMM:  19    -0.869222215699E+02   -0.16094E-03   -0.10469E-05    89   0.119E-02    0.394E-03
RMM:  20    -0.869222782248E+02   -0.56655E-04   -0.12211E-06    71   0.407E-03    0.245E-03
RMM:  21    -0.869223224426E+02   -0.44218E-04   -0.24981E-06    68   0.611E-03    0.102E-03
RMM:  22    -0.869223310340E+02   -0.85914E-05   -0.41729E-07    70   0.275E-03    0.386E-04
RMM:  23    -0.869223367147E+02   -0.56806E-05   -0.12820E-07    58   0.143E-03    0.482E-04
RMM:  24    -0.869223396258E+02   -0.29111E-05   -0.55668E-08    48   0.116E-03    0.204E-04
RMM:  25    -0.869223407434E+02   -0.11177E-05   -0.25747E-08    53   0.104E-03    0.125E-04
RMM:  26    -0.869223422896E+02   -0.15462E-05   -0.25475E-08    47   0.990E-04    0.182E-04
RMM:  27    -0.869223431022E+02   -0.81259E-06   -0.59217E-09    46   0.832E-04
   1 F= -.86922343E+02 E0= -.86922343E+02  d E =-.745836E-11
       N       E                     dE             d eps       ncg     rms          rms(c)
DAV:   1    -0.122830766302E+03   -0.35908E+02   -0.17595E+03    88   0.203E+02    0.454E+01
RMM:   2    -0.844387451163E+02    0.38392E+02   -0.34629E+02   106   0.699E+01    0.274E+01
RMM:   3    -0.575571329368E+02    0.26882E+02   -0.79397E+01    95   0.294E+01    0.781E+00
RMM:   4    -0.559810472083E+02    0.15761E+01   -0.99281E+00    98   0.897E+00    0.450E+00
RMM:   5    -0.557232474106E+02    0.25780E+00   -0.48332E+00    95   0.729E+00    0.263E+00
RMM:   6    -0.555525882793E+02    0.17066E+00   -0.52245E-01    95   0.263E+00    0.813E-01
RMM:   7    -0.555640244785E+02   -0.11436E-01   -0.25296E-01    96   0.159E+00    0.686E-01
RMM:   8    -0.555517045485E+02    0.12320E-01   -0.45797E-02    95   0.785E-01    0.160E-01
RMM:   9    -0.555550918125E+02   -0.33873E-02   -0.26149E-02    94   0.539E-01    0.275E-01
RMM:  10    -0.555552062384E+02   -0.11443E-03   -0.97294E-03    90   0.349E-01    0.554E-02
RMM:  11    -0.555574256649E+02   -0.22194E-02   -0.18846E-03    92   0.122E-01    0.372E-02
RMM:  12    -0.555589187633E+02   -0.14931E-02   -0.49446E-04    99   0.630E-02    0.172E-02
RMM:  13    -0.555598066629E+02   -0.88790E-03   -0.21010E-04    96   0.478E-02    0.297E-02
RMM:  14    -0.555610683158E+02   -0.12617E-02   -0.11537E-04    91   0.333E-02    0.148E-02
RMM:  15    -0.555614782315E+02   -0.40992E-03   -0.22425E-04    94   0.485E-02    0.227E-02
RMM:  16    -0.555617580730E+02   -0.27984E-03   -0.71117E-05    92   0.287E-02    0.267E-03
RMM:  17    -0.555618542254E+02   -0.96152E-04   -0.10433E-05    92   0.106E-02    0.470E-03
RMM:  18    -0.555619486210E+02   -0.94396E-04   -0.28267E-06    75   0.548E-03    0.328E-03
RMM:  19    -0.555619904553E+02   -0.41834E-04   -0.25827E-06    77   0.538E-03    0.795E-04
RMM:  20    -0.555620129394E+02   -0.22484E-04   -0.58385E-07    67   0.268E-03    0.656E-04
RMM:  21    -0.555620222599E+02   -0.93205E-05   -0.24178E-07    64   0.158E-03    0.382E-04
RMM:  22    -0.555620272581E+02   -0.49982E-05   -0.16263E-07    60   0.145E-03    0.157E-04
RMM:  23    -0.555620295231E+02   -0.22650E-05   -0.40582E-08    53   0.102E-03    0.975E-05
RMM:  24    -0.555620307080E+02   -0.11849E-05   -0.33199E-08    53   0.101E-03    0.469E-05
RMM:  25    -0.555620313669E+02   -0.65887E-06   -0.89272E-09    50   0.866E-04
   2 F= -.55562031E+02 E0= -.55562031E+02  d E =-.236269E-10
       N       E                     dE             d eps       ncg     rms          rms(c)
DAV:   1    -0.159299592991E+03   -0.10374E+03   -0.15696E+03    88   0.189E+02    0.444E+01
RMM:   2    -0.107265235375E+03    0.52034E+02   -0.13531E+02    96   0.433E+01    0.234E+01
RMM:   3    -0.889915558567E+02    0.18274E+02   -0.35374E+01    96   0.188E+01    0.724E+00
RMM:   4    -0.875245191237E+02    0.14670E+01   -0.12579E+01    96   0.101E+01    0.378E+00
RMM:   5    -0.872391081690E+02    0.28541E+00   -0.25115E+00    96   0.523E+00    0.147E+00
RMM:   6    -0.872046408914E+02    0.34467E-01   -0.10143E-01    96   0.112E+00    0.709E-01
RMM:   7    -0.872013733134E+02    0.32676E-02   -0.12771E-01    96   0.107E+00    0.383E-01
RMM:   8    -0.872075414902E+02   -0.61682E-02   -0.56411E-02    96   0.781E-01    0.323E-01
RMM:   9    -0.872195558739E+02   -0.12014E-01   -0.10387E-02    94   0.304E-01    0.317E-01
RMM:  10    -0.872231852037E+02   -0.36293E-02   -0.28861E-02    96   0.508E-01    0.135E-01
RMM:  11    -0.872298433785E+02   -0.66582E-02   -0.17642E-03    91   0.133E-01    0.969E-02
RMM:  12    -0.872320947011E+02   -0.22513E-02   -0.20426E-03    99   0.141E-01    0.238E-02
RMM:  13    -0.872345984618E+02   -0.25038E-02   -0.22384E-04    90   0.503E-02    0.109E-02
RMM:  14    -0.872361947110E+02   -0.15962E-02   -0.18185E-04    81   0.358E-02    0.595E-03
RMM:  15    -0.872368038579E+02   -0.60915E-03   -0.83617E-05    87   0.261E-02    0.154E-02
RMM:  16    -0.872370713394E+02   -0.26748E-03   -0.53876E-05    89   0.228E-02    0.387E-03
RMM:  17    -0.872371827422E+02   -0.11140E-03   -0.52250E-06    83   0.662E-03    0.396E-03
RMM:  18    -0.872372486570E+02   -0.65915E-04   -0.21623E-06    69   0.465E-03    0.180E-03
RMM:  19    -0.872372642899E+02   -0.15633E-04   -0.91705E-07    67   0.329E-03    0.410E-04
RMM:  20    -0.872372772002E+02   -0.12910E-04   -0.39594E-07    58   0.228E-03    0.400E-04
RMM:  21    -0.872372793976E+02   -0.21974E-05   -0.11318E-07    59   0.128E-03    0.515E-04
RMM:  22    -0.872372825468E+02   -0.31492E-05   -0.70565E-08    48   0.122E-03    0.143E-04
RMM:  23    -0.872372832865E+02   -0.73973E-06   -0.14008E-08    51   0.935E-04
   3 F= -.87237283E+02 E0= -.87237283E+02  d E =-.202208E-11
       N       E                     dE             d eps       ncg     rms          rms(c)
DAV:   1    -0.899768809831E+02   -0.27396E+01   -0.58580E+01    76   0.376E+01    0.772E+00
RMM:   2    -0.881272955061E+02    0.18496E+01   -0.45859E+00    92   0.838E+00    0.461E+00
RMM:   3    -0.873566859709E+02    0.77061E+00   -0.40384E+00    96   0.631E+00    0.109E+00
RMM:   4    -0.873323658539E+02    0.24320E-01   -0.87928E-02    96   0.112E+00    0.466E-01
RMM:   5    -0.873374061473E+02   -0.50403E-02   -0.39710E-02    92   0.688E-01    0.303E-01
RMM:   6    -0.873360682710E+02    0.13379E-02   -0.17904E-02    93   0.445E-01    0.142E-01
RMM:   7    -0.873379884421E+02   -0.19202E-02   -0.24607E-03    85   0.182E-01    0.473E-02
RMM:   8    -0.873394999641E+02   -0.15115E-02   -0.22557E-03    85   0.164E-01    0.955E-02
RMM:   9    -0.873406670965E+02   -0.11671E-02   -0.25271E-03    82   0.156E-01    0.265E-02
RMM:  10    -0.873411674927E+02   -0.50040E-03   -0.34103E-04    99   0.500E-02    0.434E-02
RMM:  11    -0.873415306087E+02   -0.36312E-03   -0.43388E-04    89   0.666E-02    0.109E-02
RMM:  12    -0.873417105481E+02   -0.17994E-03   -0.25389E-05    87   0.183E-02    0.340E-03
RMM:  13    -0.873419201340E+02   -0.20959E-03   -0.16596E-05    81   0.105E-02    0.275E-03
RMM:  14    -0.873419775169E+02   -0.57383E-04   -0.65510E-06    84   0.832E-03    0.527E-03
RMM:  15    -0.873420317694E+02   -0.54253E-04   -0.67941E-06    83   0.845E-03    0.125E-03
RMM:  16    -0.873420545507E+02   -0.22781E-04   -0.70568E-07    71   0.303E-03    0.111E-03
RMM:  17    -0.873420669925E+02   -0.12442E-04   -0.36338E-07    64   0.195E-03    0.103E-03
RMM:  18    -0.873420745057E+02   -0.75131E-05   -0.38200E-07    68   0.227E-03    0.238E-04
RMM:  19    -0.873420773177E+02   -0.28121E-05   -0.79808E-08    54   0.111E-03    0.105E-04
RMM:  20    -0.873420795591E+02   -0.22414E-05   -0.38322E-08    47   0.101E-03    0.826E-05
RMM:  21    -0.873420803527E+02   -0.79365E-06   -0.15039E-08    48   0.883E-04
   4 F= -.87342080E+02 E0= -.87342080E+02  d E =-.327274E-11
       N       E                     dE             d eps       ncg     rms          rms(c)
DAV:   1    -0.881944807840E+02   -0.85240E+00   -0.16935E+01    88   0.196E+01    0.407E+00
RMM:   2    -0.876535136130E+02    0.54097E+00   -0.12520E+00    88   0.478E+00    0.246E+00
RMM:   3    -0.874230942650E+02    0.23042E+00   -0.11683E+00    95   0.336E+00    0.456E-01
RMM:   4    -0.874196593145E+02    0.34350E-02   -0.15537E-02    95   0.483E-01    0.232E-01
RMM:   5    -0.874214650707E+02   -0.18058E-02   -0.64025E-03    91   0.278E-01    0.146E-01
RMM:   6    -0.874207548165E+02    0.71025E-03   -0.38492E-03    96   0.202E-01    0.432E-02
RMM:   7    -0.874216430545E+02   -0.88824E-03   -0.40672E-04    91   0.726E-02    0.325E-02
RMM:   8    -0.874224669132E+02   -0.82386E-03   -0.23879E-04    88   0.475E-02    0.278E-02
RMM:   9    -0.874232246332E+02   -0.75772E-03   -0.38347E-04    87   0.561E-02    0.123E-02
RMM:  10    -0.874236975918E+02   -0.47296E-03   -0.79974E-05    92   0.232E-02    0.137E-02
RMM:  11    -0.874238840550E+02   -0.18646E-03   -0.66075E-05    94   0.272E-02    0.712E-03
RMM:  12    -0.874240479703E+02   -0.16392E-03   -0.10142E-05    81   0.996E-03    0.451E-03
RMM:  13    -0.874241171721E+02   -0.69202E-04   -0.40251E-06    81   0.596E-03    0.226E-03
RMM:  14    -0.874241570518E+02   -0.39880E-04   -0.19926E-06    72   0.500E-03    0.728E-04
RMM:  15    -0.874241874268E+02   -0.30375E-04   -0.12718E-06    65   0.360E-03    0.113E-03
RMM:  16    -0.874241976440E+02   -0.10217E-04   -0.43351E-07    62   0.205E-03    0.925E-04
RMM:  17    -0.874242044228E+02   -0.67788E-05   -0.45974E-07    62   0.251E-03    0.389E-04
RMM:  18    -0.874242064485E+02   -0.20257E-05   -0.99938E-08    58   0.117E-03    0.205E-04
RMM:  19    -0.874242079138E+02   -0.14653E-05   -0.40744E-08    50   0.997E-04    0.940E-05
RMM:  20    -0.874242090633E+02   -0.11495E-05   -0.27302E-08    49   0.973E-04    0.628E-05
RMM:  21    -0.874242095901E+02   -0.52679E-06    0.00000E+00    43   0.834E-04
   5 F= -.87424210E+02 E0= -.87424210E+02  d E =-.493559E-11
       N       E                     dE             d eps       ncg     rms          rms(c)
DAV:   1    -0.874432834901E+02   -0.19074E-01   -0.14172E-01    88   0.212E+00    0.359E-01
RMM:   2    -0.874400380332E+02    0.32455E-02   -0.12007E-02    89   0.515E-01    0.214E-01
RMM:   3    -0.874391443199E+02    0.89371E-03   -0.11177E-02    94   0.345E-01    0.115E-01
RMM:   4    -0.874388705135E+02    0.27381E-03   -0.40004E-04    96   0.785E-02    0.618E-02
RMM:   5    -0.874389162635E+02   -0.45750E-04   -0.14561E-03    91   0.130E-01    0.484E-02
RMM:   6    -0.874388522871E+02    0.63976E-04   -0.42950E-04    96   0.723E-02    0.131E-02
RMM:   7    -0.874388627617E+02   -0.10475E-04   -0.19054E-05    75   0.152E-02    0.855E-03
RMM:   8    -0.874388687420E+02   -0.59803E-05   -0.18811E-05    86   0.154E-02    0.393E-03
RMM:   9    -0.874388852417E+02   -0.16500E-04   -0.14100E-06    62   0.390E-03    0.245E-03
RMM:  10    -0.874388958061E+02   -0.10564E-04   -0.22097E-06    66   0.436E-03    0.606E-04
RMM:  11    -0.874389067213E+02   -0.10915E-04   -0.10233E-06    58   0.302E-03    0.513E-04
RMM:  12    -0.874389110934E+02   -0.43721E-05   -0.44401E-07    60   0.179E-03    0.419E-04
RMM:  13    -0.874389157125E+02   -0.46191E-05   -0.37239E-07    61   0.174E-03    0.169E-04
RMM:  14    -0.874389170246E+02   -0.13121E-05   -0.12664E-07    56   0.114E-03    0.124E-04
RMM:  15    -0.874389191528E+02   -0.21282E-05   -0.13811E-07    53   0.123E-03    0.864E-05
RMM:  16    -0.874389195150E+02   -0.36220E-06   -0.24341E-08    50   0.867E-04
   6 F= -.87438920E+02 E0= -.87438920E+02  d E =-.623422E-11
       N       E                     dE             d eps       ncg     rms          rms(c)
DAV:   1    -0.874929249542E+02   -0.54006E-01   -0.93199E-01    80   0.547E+00    0.907E-01
RMM:   2    -0.874652039768E+02    0.27721E-01   -0.60395E-02    85   0.120E+00    0.545E-01
RMM:   3    -0.874556251066E+02    0.95789E-02   -0.70930E-02    93   0.894E-01    0.241E-01
RMM:   4    -0.874545775735E+02    0.10475E-02   -0.23022E-03    96   0.194E-01    0.117E-01
RMM:   5    -0.874548792663E+02   -0.30169E-03   -0.46496E-03    91   0.240E-01    0.852E-02
RMM:   6    -0.874547213426E+02    0.15792E-03   -0.21602E-03    96   0.160E-01    0.465E-02
RMM:   7    -0.874549149160E+02   -0.19357E-03   -0.17854E-04    86   0.548E-02    0.117E-02
RMM:   8    -0.874550838082E+02   -0.16889E-03   -0.21787E-04    89   0.495E-02    0.267E-02
RMM:   9    -0.874552695490E+02   -0.18574E-03   -0.73820E-05    78   0.281E-02    0.831E-03
RMM:  10    -0.874553678103E+02   -0.98261E-04   -0.36683E-05    89   0.185E-02    0.298E-03
RMM:  11    -0.874554410345E+02   -0.73224E-04   -0.64824E-06    77   0.692E-03    0.218E-03
RMM:  12    -0.874554916747E+02   -0.50640E-04   -0.38301E-06    73   0.535E-03    0.689E-04
RMM:  13    -0.874555161165E+02   -0.24442E-04   -0.12314E-06    68   0.320E-03    0.104E-03
RMM:  14    -0.874555276043E+02   -0.11488E-04   -0.83323E-07    67   0.283E-03    0.327E-04
RMM:  15    -0.874555342062E+02   -0.66020E-05   -0.39412E-07    65   0.214E-03    0.637E-04
RMM:  16    -0.874555370730E+02   -0.28668E-05   -0.12663E-07    61   0.125E-03    0.530E-04
RMM:  17    -0.874555395959E+02   -0.25229E-05   -0.11796E-07    56   0.137E-03    0.710E-05
RMM:  18    -0.874555406259E+02   -0.10300E-05   -0.16850E-08    50   0.790E-04    0.412E-05
RMM:  19    -0.874555419203E+02   -0.12945E-05   -0.54042E-09    38   0.796E-04    0.246E-05
RMM:  20    -0.874555422660E+02   -0.34574E-06    0.00000E+00    47   0.794E-04
   7 F= -.87455542E+02 E0= -.87455542E+02  d E =-.142837E-10
       N       E                     dE             d eps       ncg     rms          rms(c)
DAV:   1    -0.875113569806E+02   -0.55815E-01   -0.10596E+00    80   0.546E+00    0.989E-01
RMM:   2    -0.874763212609E+02    0.35036E-01   -0.68920E-02    85   0.123E+00    0.611E-01
RMM:   3    -0.874609484704E+02    0.15373E-01   -0.75628E-02    94   0.917E-01    0.151E-01
RMM:   4    -0.874606850854E+02    0.26338E-03   -0.15002E-03    96   0.158E-01    0.627E-02
RMM:   5    -0.874609202486E+02   -0.23516E-03   -0.90872E-04    92   0.106E-01    0.437E-02
RMM:   6    -0.874609628640E+02   -0.42615E-04   -0.73738E-04    93   0.904E-02    0.338E-02
RMM:   7    -0.874611551008E+02   -0.19224E-03   -0.14615E-04    84   0.458E-02    0.819E-03
RMM:   8    -0.874614223018E+02   -0.26720E-03   -0.13132E-04    82   0.382E-02    0.248E-02
RMM:   9    -0.874615536361E+02   -0.13133E-03   -0.98544E-05    87   0.329E-02    0.306E-03
RMM:  10    -0.874616280061E+02   -0.74370E-04   -0.18786E-05    88   0.132E-02    0.496E-03
RMM:  11    -0.874616956745E+02   -0.67668E-04   -0.55329E-06    77   0.720E-03    0.116E-03
RMM:  12    -0.874617332284E+02   -0.37554E-04   -0.18241E-06    68   0.380E-03    0.972E-04
RMM:  13    -0.874617662900E+02   -0.33062E-04   -0.19934E-06    69   0.388E-03    0.485E-04
RMM:  14    -0.874617760207E+02   -0.97307E-05   -0.50017E-07    64   0.218E-03    0.404E-04
RMM:  15    -0.874617823938E+02   -0.63731E-05   -0.22011E-07    64   0.154E-03    0.310E-04
RMM:  16    -0.874617870671E+02   -0.46732E-05   -0.14334E-07    54   0.138E-03    0.881E-05
RMM:  17    -0.874617887172E+02   -0.16501E-05   -0.37843E-08    52   0.962E-04    0.130E-04
RMM:  18    -0.874617896743E+02   -0.95713E-06   -0.48627E-09    47   0.790E-04
   8 F= -.87461790E+02 E0= -.87461790E+02  d E =-.192153E-10
       N       E                     dE             d eps       ncg     rms          rms(c)
DAV:   1    -0.875210044427E+02   -0.59216E-01   -0.11838E+00    80   0.572E+00    0.105E+00
RMM:   2    -0.874815921563E+02    0.39412E-01   -0.80285E-02    84   0.130E+00    0.652E-01
RMM:   3    -0.874636185812E+02    0.17974E-01   -0.81765E-02    94   0.956E-01    0.122E-01
RMM:   4    -0.874636015565E+02    0.17025E-04   -0.11771E-03    96   0.142E-01    0.559E-02
RMM:   5    -0.874638426118E+02   -0.24106E-03   -0.43672E-04    90   0.748E-02    0.358E-02
RMM:   6    -0.874639024672E+02   -0.59855E-04   -0.41700E-04    93   0.668E-02    0.237E-02
RMM:   7    -0.874641108452E+02   -0.20838E-03   -0.81559E-05    85   0.338E-02    0.857E-03
RMM:   8    -0.874643960940E+02   -0.28525E-03   -0.84083E-05    79   0.298E-02    0.181E-02
RMM:   9    -0.874645182404E+02   -0.12215E-03   -0.79868E-05    87   0.289E-02    0.311E-03
RMM:  10    -0.874646098911E+02   -0.91651E-04   -0.14777E-05    80   0.113E-02    0.630E-03
RMM:  11    -0.874646680265E+02   -0.58135E-04   -0.80816E-06    83   0.908E-03    0.903E-04
RMM:  12    -0.874646990813E+02   -0.31055E-04   -0.13185E-06    68   0.349E-03    0.567E-04
RMM:  13    -0.874647246052E+02   -0.25524E-04   -0.12001E-06    61   0.311E-03    0.607E-04
RMM:  14    -0.874647345616E+02   -0.99565E-05   -0.47963E-07    63   0.202E-03    0.483E-04
RMM:  15    -0.874647423559E+02   -0.77943E-05   -0.34486E-07    61   0.200E-03    0.290E-04
RMM:  16    -0.874647452240E+02   -0.28681E-05   -0.96786E-08    55   0.114E-03    0.189E-04
RMM:  17    -0.874647467175E+02   -0.14935E-05   -0.36088E-08    53   0.988E-04    0.431E-05
RMM:  18    -0.874647476019E+02   -0.88440E-06   -0.15947E-08    51   0.862E-04
   9 F= -.87464748E+02 E0= -.87464748E+02  d E =-.224997E-10
       N       E                     dE             d eps       ncg     rms          rms(c)
DAV:   1    -0.874686599109E+02   -0.39132E-02   -0.68289E-02    88   0.141E+00    0.250E-01
RMM:   2    -0.874662905335E+02    0.23694E-02   -0.48961E-03    83   0.335E-01    0.154E-01
RMM:   3    -0.874651930580E+02    0.10975E-02   -0.49565E-03    94   0.240E-01    0.275E-02
RMM:   4    -0.874652009384E+02   -0.78804E-05   -0.61455E-05    95   0.325E-02    0.145E-02
RMM:   5    -0.874652249444E+02   -0.24006E-04   -0.24664E-05    87   0.188E-02    0.920E-03
RMM:   6    -0.874652292194E+02   -0.42750E-05   -0.18627E-05    91   0.149E-02    0.320E-03
RMM:   7    -0.874652522198E+02   -0.23000E-04   -0.18329E-06    64   0.519E-03    0.189E-03
RMM:   8    -0.874652807148E+02   -0.28495E-04   -0.25519E-06    63   0.472E-03    0.203E-03
RMM:   9    -0.874652998382E+02   -0.19123E-04   -0.31668E-06    73   0.494E-03    0.769E-04
RMM:  10    -0.874653111639E+02   -0.11326E-04   -0.66268E-07    63   0.254E-03    0.816E-04
RMM:  11    -0.874653170645E+02   -0.59006E-05   -0.38347E-07    59   0.179E-03    0.311E-04
RMM:  12    -0.874653231393E+02   -0.60748E-05   -0.45101E-07    61   0.215E-03    0.520E-04
RMM:  13    -0.874653244566E+02   -0.13173E-05   -0.10544E-07    55   0.105E-03    0.234E-04
RMM:  14    -0.874653264759E+02   -0.20193E-05   -0.13065E-07    57   0.138E-03    0.283E-04
RMM:  15    -0.874653267798E+02   -0.30386E-06   -0.11398E-08    50   0.781E-04
  10 F= -.87465327E+02 E0= -.87465327E+02  d E =-.162722E-10
       N       E                     dE             d eps       ncg     rms          rms(c)
DAV:   1    -0.875155945447E+02   -0.50268E-01   -0.97769E-01    80   0.536E+00    0.940E-01
RMM:   2    -0.874810637259E+02    0.34531E-01   -0.69841E-02    84   0.130E+00    0.573E-01
RMM:   3    -0.874660247481E+02    0.15039E-01   -0.73204E-02    94   0.928E-01    0.110E-01
RMM:   4    -0.874660999487E+02   -0.75201E-04   -0.98018E-04    95   0.128E-01    0.589E-02
RMM:   5    -0.874664142005E+02   -0.31425E-03   -0.43117E-04    89   0.800E-02    0.378E-02
RMM:   6    -0.874664281221E+02   -0.13922E-04   -0.36314E-04    94   0.657E-02    0.150E-02
RMM:   7    -0.874666381007E+02   -0.20998E-03   -0.33384E-05    84   0.230E-02    0.762E-03
RMM:   8    -0.874668937532E+02   -0.25565E-03   -0.45200E-05    81   0.210E-02    0.103E-02
RMM:   9    -0.874670063314E+02   -0.11258E-03   -0.41187E-05    88   0.200E-02    0.317E-03
RMM:  10    -0.874671025647E+02   -0.96233E-04   -0.11033E-05    83   0.888E-03    0.522E-03
RMM:  11    -0.874671432601E+02   -0.40695E-04   -0.67937E-06    83   0.860E-03    0.109E-03
RMM:  12    -0.874671770233E+02   -0.33763E-04   -0.14880E-06    68   0.365E-03    0.109E-03
RMM:  13    -0.874671943272E+02   -0.17304E-04   -0.74703E-07    63   0.254E-03    0.682E-04
RMM:  14    -0.874672038753E+02   -0.95482E-05   -0.45389E-07    62   0.206E-03    0.186E-04
RMM:  15    -0.874672106466E+02   -0.67712E-05   -0.30306E-07    56   0.177E-03    0.306E-04
RMM:  16    -0.874672124796E+02   -0.18330E-05   -0.89613E-08    57   0.100E-03    0.202E-04
RMM:  17    -0.874672142539E+02   -0.17743E-05   -0.35384E-08    48   0.981E-04    0.592E-05
RMM:  18    -0.874672152479E+02   -0.99398E-06   -0.26412E-08    50   0.993E-04
  11 F= -.87467215E+02 E0= -.87467215E+02  d E =-.104980E-10
       N       E                     dE             d eps       ncg     rms          rms(c)
DAV:   1    -0.875897453414E+02   -0.12253E+00   -0.24073E+00    80   0.843E+00    0.147E+00
RMM:   2    -0.875039333056E+02    0.85812E-01   -0.17153E-01    86   0.205E+00    0.894E-01
RMM:   3    -0.874674069391E+02    0.36526E-01   -0.18197E-01    95   0.146E+00    0.176E-01
RMM:   4    -0.874675226821E+02   -0.11574E-03   -0.25642E-03    96   0.205E-01    0.956E-02
RMM:   5    -0.874682229559E+02   -0.70027E-03   -0.11929E-03    91   0.135E-01    0.620E-02
RMM:   6    -0.874682022950E+02    0.20661E-04   -0.10400E-03    93   0.111E-01    0.258E-02
RMM:   7    -0.874686090084E+02   -0.40671E-03   -0.91635E-05    86   0.394E-02    0.122E-02
RMM:   8    -0.874691144186E+02   -0.50541E-03   -0.11183E-04    81   0.345E-02    0.176E-02
RMM:   9    -0.874693299099E+02   -0.21549E-03   -0.10623E-04    91   0.324E-02    0.477E-03
RMM:  10    -0.874695082847E+02   -0.17837E-03   -0.28031E-05    87   0.146E-02    0.917E-03
RMM:  11    -0.874695838392E+02   -0.75555E-04   -0.16969E-05    90   0.139E-02    0.164E-03
RMM:  12    -0.874696533620E+02   -0.69523E-04   -0.40335E-06    75   0.604E-03    0.220E-03
RMM:  13    -0.874696935405E+02   -0.40178E-04   -0.19513E-06    69   0.411E-03    0.864E-04
RMM:  14    -0.874697091355E+02   -0.15595E-04   -0.63881E-07    67   0.244E-03    0.415E-04
RMM:  15    -0.874697249857E+02   -0.15850E-04   -0.68664E-07    60   0.255E-03    0.437E-04
RMM:  16    -0.874697287390E+02   -0.37533E-05   -0.21494E-07    59   0.139E-03    0.330E-04
RMM:  17    -0.874697316921E+02   -0.29532E-05   -0.11914E-07    55   0.128E-03    0.767E-05
RMM:  18    -0.874697335018E+02   -0.18096E-05   -0.45036E-08    49   0.103E-03    0.430E-05
RMM:  19    -0.874697341308E+02   -0.62904E-06   -0.80092E-09    49   0.895E-04
  12 F= -.87469734E+02 E0= -.87469734E+02  d E =-.651121E-11
       N       E                     dE             d eps       ncg     rms          rms(c)
DAV:   1    -0.878379194881E+02   -0.36819E+00   -0.72943E+00    80   0.147E+01    0.256E+00
RMM:   2    -0.875780144596E+02    0.25991E+00   -0.52099E-01    86   0.359E+00    0.155E+00
RMM:   3    -0.874686818934E+02    0.10933E+00   -0.55371E-01    95   0.256E+00    0.313E-01
RMM:   4    -0.874686657946E+02    0.16099E-04   -0.81588E-03    95   0.363E-01    0.170E-01
RMM:   5    -0.874704017494E+02   -0.17360E-02   -0.39848E-03    91   0.247E-01    0.111E-01
RMM:   6    -0.874701646867E+02    0.23706E-03   -0.34318E-03    96   0.202E-01    0.476E-02
RMM:   7    -0.874710579804E+02   -0.89329E-03   -0.30857E-04    86   0.734E-02    0.216E-02
RMM:   8    -0.874721202010E+02   -0.10622E-02   -0.32308E-04    82   0.613E-02    0.323E-02
RMM:   9    -0.874725765834E+02   -0.45638E-03   -0.32173E-04    88   0.573E-02    0.782E-03
RMM:  10    -0.874729623910E+02   -0.38581E-03   -0.88803E-05    91   0.266E-02    0.171E-02
RMM:  11    -0.874731194237E+02   -0.15703E-03   -0.53245E-05    93   0.254E-02    0.298E-03
RMM:  12    -0.874732703566E+02   -0.15093E-03   -0.11765E-05    81   0.101E-02    0.399E-03
RMM:  13    -0.874733751004E+02   -0.10474E-03   -0.66843E-06    77   0.741E-03    0.140E-03
RMM:  14    -0.874734087074E+02   -0.33607E-04   -0.15699E-06    72   0.363E-03    0.668E-04
RMM:  15    -0.874734423849E+02   -0.33678E-04   -0.13201E-06    62   0.333E-03    0.461E-04
RMM:  16    -0.874734530107E+02   -0.10626E-04   -0.47509E-07    58   0.203E-03    0.429E-04
RMM:  17    -0.874734576599E+02   -0.46492E-05   -0.20776E-07    57   0.150E-03    0.225E-04
RMM:  18    -0.874734609319E+02   -0.32720E-05   -0.14548E-07    60   0.147E-03    0.143E-04
RMM:  19    -0.874734620497E+02   -0.11178E-05   -0.35987E-08    54   0.875E-04    0.109E-04
RMM:  20    -0.874734629372E+02   -0.88749E-06    0.00000E+00    44   0.752E-04
  13 F= -.87473463E+02 E0= -.87473463E+02  d E =-.217722E-11
       N       E                     dE             d eps       ncg     rms          rms(c)
DAV:   1    -0.876922215520E+02   -0.21876E+00   -0.43189E+00    80   0.114E+01    0.197E+00
RMM:   2    -0.875379325185E+02    0.15429E+00   -0.30811E-01    86   0.277E+00    0.119E+00
RMM:   3    -0.874730480571E+02    0.64884E-01   -0.32573E-01    95   0.196E+00    0.242E-01
RMM:   4    -0.874730644597E+02   -0.16403E-04   -0.49497E-03    95   0.281E-01    0.132E-01
RMM:   5    -0.874741235399E+02   -0.10591E-02   -0.24429E-03    91   0.195E-01    0.858E-02
RMM:   6    -0.874740216101E+02    0.10193E-03   -0.21126E-03    95   0.159E-01    0.386E-02
RMM:   7    -0.874746046917E+02   -0.58308E-03   -0.19468E-04    86   0.585E-02    0.168E-02
RMM:   8    -0.874753549218E+02   -0.75023E-03   -0.20687E-04    84   0.493E-02    0.260E-02
RMM:   9    -0.874756710561E+02   -0.31613E-03   -0.20944E-04    90   0.464E-02    0.648E-03
RMM:  10    -0.874759342207E+02   -0.26316E-03   -0.52037E-05    91   0.200E-02    0.131E-02
RMM:  11    -0.874760476533E+02   -0.11343E-03   -0.31066E-05    92   0.195E-02    0.233E-03
RMM:  12    -0.874761595787E+02   -0.11193E-03   -0.81258E-06    81   0.837E-03    0.315E-03
RMM:  13    -0.874762355915E+02   -0.76013E-04   -0.44323E-06    73   0.611E-03    0.106E-03
RMM:  14    -0.874762581588E+02   -0.22567E-04   -0.10269E-06    70   0.294E-03    0.573E-04
RMM:  15    -0.874762847360E+02   -0.26577E-04   -0.10804E-06    61   0.309E-03    0.494E-04
RMM:  16    -0.874762904604E+02   -0.57243E-05   -0.30768E-07    60   0.166E-03    0.354E-04
RMM:  17    -0.874762950034E+02   -0.45431E-05   -0.17996E-07    56   0.145E-03    0.134E-04
RMM:  18    -0.874762968458E+02   -0.18424E-05   -0.73449E-08    59   0.112E-03    0.677E-05
RMM:  19    -0.874762982661E+02   -0.14203E-05   -0.29301E-08    49   0.958E-04    0.538E-05
RMM:  20    -0.874762989283E+02   -0.66219E-06   -0.12689E-08    48   0.887E-04
  14 F= -.87476299E+02 E0= -.87476299E+02  d E =-.126772E-11
       N       E                     dE             d eps       ncg     rms          rms(c)
DAV:   1    -0.875173135622E+02   -0.41015E-01   -0.80535E-01    80   0.495E+00    0.854E-01
RMM:   2    -0.874891151802E+02    0.28198E-01   -0.56789E-02    86   0.120E+00    0.515E-01
RMM:   3    -0.874767761736E+02    0.12339E-01   -0.58110E-02    95   0.840E-01    0.103E-01
RMM:   4    -0.874767984119E+02   -0.22238E-04   -0.92973E-04    95   0.120E-01    0.560E-02
RMM:   5    -0.874769990302E+02   -0.20062E-03   -0.41556E-04    91   0.817E-02    0.346E-02
RMM:   6    -0.874770203278E+02   -0.21298E-04   -0.36889E-04    93   0.665E-02    0.181E-02
RMM:   7    -0.874771705697E+02   -0.15024E-03   -0.43597E-05    88   0.277E-02    0.759E-03
RMM:   8    -0.874773836700E+02   -0.21310E-03   -0.41507E-05    85   0.219E-02    0.116E-02
RMM:   9    -0.874774750188E+02   -0.91349E-04   -0.45978E-05    90   0.219E-02    0.379E-03
RMM:  10    -0.874775587187E+02   -0.83700E-04   -0.81050E-06    84   0.742E-03    0.482E-03
RMM:  11    -0.874775988996E+02   -0.40181E-04   -0.60682E-06    82   0.845E-03    0.131E-03
RMM:  12    -0.874776315590E+02   -0.32659E-04   -0.12260E-06    66   0.350E-03    0.111E-03
RMM:  13    -0.874776534523E+02   -0.21893E-04   -0.90570E-07    64   0.274E-03    0.598E-04
RMM:  14    -0.874776640804E+02   -0.10628E-04   -0.56365E-07    62   0.214E-03    0.204E-04
RMM:  15    -0.874776710494E+02   -0.69690E-05   -0.31981E-07    60   0.170E-03    0.245E-04
RMM:  16    -0.874776739107E+02   -0.28613E-05   -0.13623E-07    56   0.117E-03    0.164E-04
RMM:  17    -0.874776763378E+02   -0.24271E-05   -0.68520E-08    53   0.112E-03    0.560E-05
RMM:  18    -0.874776770098E+02   -0.67205E-06   -0.12659E-08    51   0.863E-04
  15 F= -.87477677E+02 E0= -.87477677E+02  d E =-.146967E-11
       N       E                     dE             d eps       ncg     rms          rms(c)
DAV:   1    -0.874796116653E+02   -0.19353E-02   -0.35546E-02    88   0.106E+00    0.179E-01
RMM:   2    -0.874785145736E+02    0.10971E-02   -0.23404E-03    85   0.244E-01    0.111E-01
RMM:   3    -0.874779631425E+02    0.55143E-03   -0.21265E-03    93   0.168E-01    0.194E-02
RMM:   4    -0.874779617452E+02    0.13973E-05   -0.36290E-05    94   0.233E-02    0.948E-03
RMM:   5    -0.874779638122E+02   -0.20670E-05   -0.10124E-05    84   0.125E-02    0.513E-03
RMM:   6    -0.874779678146E+02   -0.40024E-05   -0.97251E-06    85   0.108E-02    0.386E-03
RMM:   7    -0.874779760800E+02   -0.82654E-05   -0.23052E-06    69   0.651E-03    0.176E-03
RMM:   8    -0.874779916247E+02   -0.15545E-04   -0.19598E-06    67   0.468E-03    0.216E-03
RMM:   9    -0.874780022211E+02   -0.10596E-04   -0.17518E-06    66   0.422E-03    0.525E-04
RMM:  10    -0.874780078126E+02   -0.55915E-05   -0.47713E-07    64   0.227E-03    0.698E-04
RMM:  11    -0.874780158776E+02   -0.80650E-05   -0.44193E-07    54   0.190E-03    0.242E-04
RMM:  12    -0.874780185493E+02   -0.26717E-05   -0.20251E-07    60   0.134E-03    0.152E-04
RMM:  13    -0.874780211848E+02   -0.26355E-05   -0.11792E-07    47   0.116E-03    0.955E-05
RMM:  14    -0.874780223652E+02   -0.11803E-05   -0.84141E-08    58   0.103E-03    0.769E-05
RMM:  15    -0.874780231518E+02   -0.78667E-06   -0.70555E-09    45   0.765E-04
  16 F= -.87478023E+02 E0= -.87478023E+02  d E =-.207727E-11
       N       E                     dE             d eps       ncg     rms          rms(c)
DAV:   1    -0.874868355453E+02   -0.88132E-02   -0.18248E-01    88   0.236E+00    0.401E-01
RMM:   2    -0.874811949694E+02    0.56406E-02   -0.11725E-02    82   0.540E-01    0.251E-01
RMM:   3    -0.874784112566E+02    0.27837E-02   -0.11132E-02    93   0.380E-01    0.427E-02
RMM:   4    -0.874784103938E+02    0.86280E-06   -0.17343E-04    96   0.511E-02    0.216E-02
RMM:   5    -0.874784282036E+02   -0.17810E-04   -0.52882E-05    91   0.290E-02    0.117E-02
RMM:   6    -0.874784433818E+02   -0.15178E-04   -0.50570E-05    91   0.246E-02    0.847E-03
RMM:   7    -0.874784791156E+02   -0.35734E-04   -0.10999E-05    85   0.137E-02    0.387E-03
RMM:   8    -0.874785473796E+02   -0.68264E-04   -0.96067E-06    77   0.956E-03    0.447E-03
RMM:   9    -0.874785810374E+02   -0.33658E-04   -0.98780E-06    85   0.101E-02    0.230E-03
RMM:  10    -0.874786080337E+02   -0.26996E-04   -0.14915E-06    69   0.365E-03    0.127E-03
RMM:  11    -0.874786240891E+02   -0.16055E-04   -0.13949E-06    64   0.390E-03    0.717E-04
RMM:  12    -0.874786353497E+02   -0.11261E-04   -0.55936E-07    62   0.210E-03    0.262E-04
RMM:  13    -0.874786401643E+02   -0.48147E-05   -0.31803E-07    58   0.157E-03    0.181E-04
RMM:  14    -0.874786438805E+02   -0.37162E-05   -0.19708E-07    58   0.142E-03    0.118E-04
RMM:  15    -0.874786451791E+02   -0.12986E-05   -0.58141E-08    53   0.967E-04    0.595E-05
RMM:  16    -0.874786473133E+02   -0.21342E-05   -0.61717E-08    52   0.107E-03    0.978E-05
RMM:  17    -0.874786476255E+02   -0.31218E-06    0.00000E+00    46   0.756E-04
  17 F= -.87478648E+02 E0= -.87478648E+02  d E =-.224097E-11
       N       E                     dE             d eps       ncg     rms          rms(c)
DAV:   1    -0.875325538936E+02   -0.53907E-01   -0.11654E+00    80   0.594E+00    0.101E+00
RMM:   2    -0.874963334069E+02    0.36220E-01   -0.74990E-02    83   0.137E+00    0.633E-01
RMM:   3    -0.874788892231E+02    0.17444E-01   -0.72990E-02    94   0.969E-01    0.109E-01
RMM:   4    -0.874788746703E+02    0.14553E-04   -0.10710E-03    95   0.129E-01    0.560E-02
RMM:   5    -0.874790129300E+02   -0.13826E-03   -0.37863E-04    91   0.785E-02    0.314E-02
RMM:   6    -0.874790646439E+02   -0.51714E-04   -0.34237E-04    92   0.642E-02    0.209E-02
RMM:   7    -0.874792382957E+02   -0.17365E-03   -0.62934E-05    88   0.332E-02    0.942E-03
RMM:   8    -0.874795097303E+02   -0.27143E-03   -0.48764E-05    82   0.223E-02    0.110E-02
RMM:   9    -0.874796413264E+02   -0.13160E-03   -0.52830E-05    91   0.236E-02    0.454E-03
RMM:  10    -0.874797527567E+02   -0.11143E-03   -0.96522E-06    82   0.811E-03    0.400E-03
RMM:  11    -0.874798015872E+02   -0.48831E-04   -0.72265E-06    85   0.897E-03    0.199E-03
RMM:  12    -0.874798394406E+02   -0.37853E-04   -0.15670E-06    68   0.379E-03    0.734E-04
RMM:  13    -0.874798641039E+02   -0.24663E-04   -0.12201E-06    65   0.330E-03    0.669E-04
RMM:  14    -0.874798730031E+02   -0.88992E-05   -0.39925E-07    64   0.194E-03    0.208E-04
RMM:  15    -0.874798822677E+02   -0.92646E-05   -0.32492E-07    55   0.179E-03    0.169E-04
RMM:  16    -0.874798847005E+02   -0.24328E-05   -0.11438E-07    59   0.116E-03    0.798E-05
RMM:  17    -0.874798869953E+02   -0.22948E-05   -0.46246E-08    49   0.102E-03    0.379E-05
RMM:  18    -0.874798880072E+02   -0.10119E-05   -0.85572E-09    45   0.931E-04    0.303E-05
RMM:  19    -0.874798884380E+02   -0.43081E-06   -0.39782E-09    48   0.916E-04
  18 F= -.87479888E+02 E0= -.87479888E+02  d E =-.257959E-11
       N       E                     dE             d eps       ncg     rms          rms(c)
DAV:   1    -0.876523741725E+02   -0.17249E+00   -0.37667E+00    80   0.107E+01    0.182E+00
RMM:   2    -0.875347804130E+02    0.11759E+00   -0.24289E-01    84   0.248E+00    0.114E+00
RMM:   3    -0.874793829521E+02    0.55397E-01   -0.24002E-01    95   0.176E+00    0.200E-01
RMM:   4    -0.874792369752E+02    0.14598E-03   -0.34452E-03    96   0.235E-01    0.103E-01
RMM:   5    -0.874796487302E+02   -0.41176E-03   -0.13296E-03    92   0.148E-01    0.591E-02
RMM:   6    -0.874797019750E+02   -0.53245E-04   -0.11177E-03    92   0.116E-01    0.362E-02
RMM:   7    -0.874801274999E+02   -0.42552E-03   -0.17667E-04    86   0.562E-02    0.159E-02
RMM:   8    -0.874807602309E+02   -0.63273E-03   -0.14146E-04    82   0.394E-02    0.201E-02
RMM:   9    -0.874810663936E+02   -0.30616E-03   -0.16298E-04    89   0.416E-02    0.736E-03
RMM:  10    -0.874813221991E+02   -0.25581E-03   -0.29373E-05    84   0.144E-02    0.775E-03
RMM:  11    -0.874814231377E+02   -0.10094E-03   -0.20604E-05    90   0.156E-02    0.303E-03
RMM:  12    -0.874815122611E+02   -0.89123E-04   -0.42982E-06    73   0.581E-03    0.148E-03
RMM:  13    -0.874815649253E+02   -0.52664E-04   -0.31814E-06    69   0.528E-03    0.119E-03
RMM:  14    -0.874815838339E+02   -0.18909E-04   -0.75501E-07    67   0.282E-03    0.386E-04
RMM:  15    -0.874816047812E+02   -0.20947E-04   -0.73505E-07    61   0.257E-03    0.279E-04
RMM:  16    -0.874816104662E+02   -0.56851E-05   -0.28930E-07    58   0.160E-03    0.154E-04
RMM:  17    -0.874816145153E+02   -0.40491E-05   -0.15816E-07    57   0.139E-03    0.977E-05
RMM:  18    -0.874816159206E+02   -0.14052E-05   -0.42975E-08    52   0.998E-04    0.533E-05
RMM:  19    -0.874816171247E+02   -0.12041E-05   -0.17950E-08    46   0.963E-04    0.309E-05
RMM:  20    -0.874816175272E+02   -0.40253E-06   -0.30872E-09    47   0.879E-04
  19 F= -.87481618E+02 E0= -.87481618E+02  d E =-.231958E-11
       N       E                     dE             d eps       ncg     rms          rms(c)
DAV:   1    -0.876144653697E+02   -0.13285E+00   -0.29053E+00    80   0.941E+00    0.160E+00
RMM:   2    -0.875234444802E+02    0.91021E-01   -0.18730E-01    85   0.219E+00    0.996E-01
RMM:   3    -0.874808234000E+02    0.42621E-01   -0.18630E-01    94   0.155E+00    0.176E-01
RMM:   4    -0.874807394463E+02    0.83954E-04   -0.26049E-03    96   0.207E-01    0.916E-02
RMM:   5    -0.874811448602E+02   -0.40541E-03   -0.10913E-03    91   0.134E-01    0.534E-02
RMM:   6    -0.874811862523E+02   -0.41392E-04   -0.84954E-04    93   0.102E-01    0.302E-02
RMM:   7    -0.874815521619E+02   -0.36591E-03   -0.11966E-04    86   0.462E-02    0.132E-02
RMM:   8    -0.874820624352E+02   -0.51027E-03   -0.10281E-04    83   0.339E-02    0.175E-02
RMM:   9    -0.874823124519E+02   -0.25002E-03   -0.12098E-04    90   0.354E-02    0.587E-03
RMM:  10    -0.874825174232E+02   -0.20497E-03   -0.23553E-05    83   0.129E-02    0.724E-03
RMM:  11    -0.874826009231E+02   -0.83500E-04   -0.16194E-05    90   0.139E-02    0.250E-03
RMM:  12    -0.874826714425E+02   -0.70519E-04   -0.30296E-06    72   0.489E-03    0.143E-03
RMM:  13    -0.874827180713E+02   -0.46629E-04   -0.25011E-06    66   0.469E-03    0.914E-04
RMM:  14    -0.874827348801E+02   -0.16809E-04   -0.62350E-07    67   0.250E-03    0.333E-04
RMM:  15    -0.874827520476E+02   -0.17168E-04   -0.58183E-07    58   0.228E-03    0.229E-04
RMM:  16    -0.874827572658E+02   -0.52182E-05   -0.23918E-07    56   0.154E-03    0.158E-04
RMM:  17    -0.874827602428E+02   -0.29770E-05   -0.12395E-07    62   0.131E-03    0.851E-05
RMM:  18    -0.874827616718E+02   -0.14289E-05   -0.40882E-08    53   0.914E-04    0.617E-05
RMM:  19    -0.874827630177E+02   -0.13459E-05   -0.14116E-08    46   0.886E-04    0.316E-05
RMM:  20    -0.874827633414E+02   -0.32373E-06    0.00000E+00    46   0.818E-04
  20 F= -.87482763E+02 E0= -.87482763E+02  d E =-.171237E-11
       N       E                     dE             d eps       ncg     rms          rms(c)
DAV:   1    -0.874922999165E+02   -0.95369E-02   -0.20607E-01    80   0.254E+00    0.429E-01
RMM:   2    -0.874859588535E+02    0.63411E-02   -0.12998E-02    82   0.580E-01    0.265E-01
RMM:   3    -0.874829334175E+02    0.30254E-02   -0.12810E-02    92   0.415E-01    0.469E-02
RMM:   4    -0.874829349897E+02   -0.15722E-05   -0.16727E-04    96   0.544E-02    0.240E-02
RMM:   5    -0.874829823710E+02   -0.47381E-04   -0.83926E-05    89   0.372E-02    0.142E-02
RMM:   6    -0.874829930013E+02   -0.10630E-04   -0.51104E-05    93   0.257E-02    0.729E-03
RMM:   7    -0.874830359463E+02   -0.42945E-04   -0.64757E-06    78   0.105E-02    0.296E-03
RMM:   8    -0.874830962942E+02   -0.60348E-04   -0.80632E-06    76   0.958E-03    0.513E-03
RMM:   9    -0.874831286811E+02   -0.32387E-04   -0.86126E-06    81   0.947E-03    0.120E-03
RMM:  10    -0.874831549167E+02   -0.26236E-04   -0.20944E-06    69   0.457E-03    0.214E-03
RMM:  11    -0.874831678154E+02   -0.12899E-04   -0.96947E-07    67   0.341E-03    0.497E-04
RMM:  12    -0.874831785774E+02   -0.10762E-04   -0.74908E-07    64   0.290E-03    0.643E-04
RMM:  13    -0.874831846775E+02   -0.61001E-05   -0.34412E-07    57   0.172E-03    0.301E-04
RMM:  14    -0.874831883599E+02   -0.36824E-05   -0.21324E-07    59   0.152E-03    0.151E-04
RMM:  15    -0.874831901910E+02   -0.18310E-05   -0.65507E-08    55   0.984E-04    0.569E-05
RMM:  16    -0.874831919689E+02   -0.17779E-05   -0.33933E-08    46   0.940E-04    0.586E-05
RMM:  17    -0.874831925807E+02   -0.61178E-06   -0.37976E-09    47   0.825E-04
  21 F= -.87483193E+02 E0= -.87483193E+02  d E =-.134282E-11
       N       E                     dE             d eps       ncg     rms          rms(c)
DAV:   1    -0.874853228623E+02   -0.21309E-02   -0.43130E-02    88   0.118E+00    0.198E-01
RMM:   2    -0.874840284323E+02    0.12944E-02   -0.26735E-03    78   0.259E-01    0.125E-01
RMM:   3    -0.874833732238E+02    0.65521E-03   -0.26715E-03    90   0.194E-01    0.227E-02
RMM:   4    -0.874833690857E+02    0.41381E-05   -0.36626E-05    96   0.259E-02    0.893E-03
RMM:   5    -0.874833751507E+02   -0.60650E-05   -0.14951E-05    90   0.152E-02    0.554E-03
RMM:   6    -0.874833800291E+02   -0.48784E-05   -0.79920E-06    88   0.107E-02    0.345E-03
RMM:   7    -0.874833909749E+02   -0.10946E-04   -0.15648E-06    63   0.498E-03    0.133E-03
RMM:   8    -0.874834048715E+02   -0.13897E-04   -0.29679E-06    69   0.587E-03    0.274E-03
RMM:   9    -0.874834169253E+02   -0.12054E-04   -0.18782E-06    64   0.437E-03    0.803E-04
RMM:  10    -0.874834205635E+02   -0.36381E-05   -0.60941E-07    69   0.295E-03    0.578E-04
RMM:  11    -0.874834267748E+02   -0.62114E-05   -0.37177E-07    55   0.172E-03    0.414E-04
RMM:  12    -0.874834296168E+02   -0.28419E-05   -0.24558E-07    61   0.150E-03    0.113E-04
RMM:  13    -0.874834320460E+02   -0.24292E-05   -0.14790E-07    50   0.119E-03    0.599E-05
RMM:  14    -0.874834329075E+02   -0.86151E-06   -0.65566E-08    55   0.974E-04
  22 F= -.87483433E+02 E0= -.87483433E+02  d E =-.874532E-12
       N       E                     dE             d eps       ncg     rms          rms(c)
DAV:   1    -0.874866809782E+02   -0.32489E-02   -0.67333E-02    88   0.144E+00    0.245E-01
RMM:   2    -0.874846214840E+02    0.20595E-02   -0.41697E-03    78   0.316E-01    0.156E-01
RMM:   3    -0.874835873508E+02    0.10341E-02   -0.43855E-03    91   0.240E-01    0.293E-02
RMM:   4    -0.874835810000E+02    0.63508E-05   -0.61872E-05    96   0.331E-02    0.118E-02
RMM:   5    -0.874835908920E+02   -0.98920E-05   -0.25993E-05    91   0.200E-02    0.742E-03
RMM:   6    -0.874835967989E+02   -0.59070E-05   -0.15927E-05    89   0.147E-02    0.482E-03
RMM:   7    -0.874836123765E+02   -0.15578E-04   -0.33056E-06    67   0.717E-03    0.186E-03
RMM:   8    -0.874836347114E+02   -0.22335E-04   -0.49917E-06    73   0.759E-03    0.388E-03
RMM:   9    -0.874836502997E+02   -0.15588E-04   -0.37461E-06    71   0.668E-03    0.610E-04
RMM:  10    -0.874836570917E+02   -0.67920E-05   -0.67193E-07    66   0.313E-03    0.869E-04
RMM:  11    -0.874836646286E+02   -0.75368E-05   -0.45855E-07    54   0.189E-03    0.642E-04
RMM:  12    -0.874836696351E+02   -0.50065E-05   -0.43782E-07    68   0.200E-03    0.156E-04
RMM:  13    -0.874836719360E+02   -0.23009E-05   -0.17085E-07    53   0.111E-03    0.991E-05
RMM:  14    -0.874836739919E+02   -0.20559E-05   -0.10401E-07    51   0.105E-03    0.629E-05
RMM:  15    -0.874836750736E+02   -0.10817E-05   -0.33565E-08    51   0.957E-04    0.531E-05
RMM:  16    -0.874836758854E+02   -0.81183E-06   -0.28870E-08    52   0.946E-04
  23 F= -.87483676E+02 E0= -.87483676E+02  d E =-.137486E-11
       N       E                     dE             d eps       ncg     rms          rms(c)
DAV:   1    -0.874946196843E+02   -0.10945E-01   -0.23887E-01    80   0.279E+00    0.454E-01
RMM:   2    -0.874873640405E+02    0.72556E-02   -0.15017E-02    83   0.615E-01    0.287E-01
RMM:   3    -0.874838314362E+02    0.35326E-02   -0.15331E-02    92   0.454E-01    0.549E-02
RMM:   4    -0.874838123216E+02    0.19115E-04   -0.22973E-04    96   0.630E-02    0.253E-02
RMM:   5    -0.874838506054E+02   -0.38284E-04   -0.11218E-04    91   0.415E-02    0.156E-02
RMM:   6    -0.874838706656E+02   -0.20060E-04   -0.84172E-05    93   0.333E-02    0.117E-02
RMM:   7    -0.874839177069E+02   -0.47041E-04   -0.16329E-05    85   0.167E-02    0.359E-03
RMM:   8    -0.874839936406E+02   -0.75934E-04   -0.19709E-05    80   0.152E-02    0.880E-03
RMM:   9    -0.874840342684E+02   -0.40628E-04   -0.15428E-05    86   0.140E-02    0.110E-03
RMM:  10    -0.874840624964E+02   -0.28228E-04   -0.30748E-06    72   0.598E-03    0.226E-03
RMM:  11    -0.874840793499E+02   -0.16854E-04   -0.11047E-06    69   0.334E-03    0.895E-04
RMM:  12    -0.874840930684E+02   -0.13718E-04   -0.84807E-07    65   0.293E-03    0.305E-04
RMM:  13    -0.874841000170E+02   -0.69486E-05   -0.39077E-07    59   0.176E-03    0.228E-04
RMM:  14    -0.874841045037E+02   -0.44867E-05   -0.23522E-07    56   0.145E-03    0.168E-04
RMM:  15    -0.874841068895E+02   -0.23858E-05   -0.96111E-08    55   0.116E-03    0.150E-04
RMM:  16    -0.874841089221E+02   -0.20326E-05   -0.53008E-08    55   0.109E-03    0.922E-05
RMM:  17    -0.874841094792E+02   -0.55705E-06   -0.71276E-09    49   0.827E-04
  24 F= -.87484109E+02 E0= -.87484109E+02  d E =-.161366E-11
       N       E                     dE             d eps       ncg     rms          rms(c)
DAV:   1    -0.875031430067E+02   -0.19034E-01   -0.42833E-01    80   0.376E+00    0.598E-01
RMM:   2    -0.874902021189E+02    0.12941E-01   -0.27587E-02    84   0.855E-01    0.372E-01
RMM:   3    -0.874841008044E+02    0.61013E-02   -0.26440E-02    94   0.595E-01    0.723E-02
RMM:   4    -0.874840878574E+02    0.12947E-04   -0.44989E-04    96   0.853E-02    0.379E-02
RMM:   5    -0.874841595374E+02   -0.71680E-04   -0.19296E-04    91   0.558E-02    0.214E-02
RMM:   6    -0.874842024578E+02   -0.42920E-04   -0.18418E-04    92   0.485E-02    0.175E-02
RMM:   7    -0.874842799827E+02   -0.77525E-04   -0.38160E-05    84   0.265E-02    0.518E-03
RMM:   8    -0.874844239889E+02   -0.14401E-03   -0.33416E-05    78   0.199E-02    0.116E-02
RMM:   9    -0.874844781104E+02   -0.54121E-04   -0.27273E-05    91   0.187E-02    0.165E-03
RMM:  10    -0.874845308091E+02   -0.52699E-04   -0.48179E-06    79   0.682E-03    0.306E-03
RMM:  11    -0.874845585693E+02   -0.27760E-04   -0.19283E-06    72   0.462E-03    0.779E-04
RMM:  12    -0.874845782016E+02   -0.19632E-04   -0.75549E-07    68   0.269E-03    0.416E-04
RMM:  13    -0.874845912636E+02   -0.13062E-04   -0.61353E-07    61   0.232E-03    0.381E-04
RMM:  14    -0.874845990450E+02   -0.77814E-05   -0.37380E-07    57   0.176E-03    0.285E-04
RMM:  15    -0.874846031757E+02   -0.41307E-05   -0.15463E-07    56   0.128E-03    0.918E-05
RMM:  16    -0.874846059442E+02   -0.27684E-05   -0.92472E-08    53   0.117E-03    0.119E-04
RMM:  17    -0.874846068229E+02   -0.87877E-06   -0.17389E-08    50   0.835E-04
  25 F= -.87484607E+02 E0= -.87484607E+02  d E =-.207317E-11
       N       E                     dE             d eps       ncg     rms          rms(c)
DAV:   1    -0.875028464648E+02   -0.18241E-01   -0.42037E-01    80   0.369E+00    0.587E-01
RMM:   2    -0.874902784538E+02    0.12568E-01   -0.27279E-02    83   0.856E-01    0.360E-01
RMM:   3    -0.874845014476E+02    0.57770E-02   -0.24784E-02    94   0.572E-01    0.702E-02
RMM:   4    -0.874845051579E+02   -0.37103E-05   -0.46913E-04    95   0.840E-02    0.394E-02
RMM:   5    -0.874845764535E+02   -0.71296E-04   -0.16699E-04    90   0.532E-02    0.206E-02
RMM:   6    -0.874846230865E+02   -0.46633E-04   -0.17260E-04    91   0.463E-02    0.165E-02
RMM:   7    -0.874846992383E+02   -0.76152E-04   -0.36122E-05    90   0.261E-02    0.550E-03
RMM:   8    -0.874848505405E+02   -0.15130E-03   -0.27454E-05    82   0.179E-02    0.994E-03
RMM:   9    -0.874849006139E+02   -0.50073E-04   -0.23993E-05    92   0.173E-02    0.216E-03
RMM:  10    -0.874849601084E+02   -0.59494E-04   -0.38425E-06    75   0.587E-03    0.264E-03
RMM:  11    -0.874849848484E+02   -0.24740E-04   -0.17148E-06    72   0.438E-03    0.707E-04
RMM:  12    -0.874850051645E+02   -0.20316E-04   -0.77272E-07    65   0.285E-03    0.373E-04
RMM:  13    -0.874850179218E+02   -0.12757E-04   -0.59597E-07    58   0.222E-03    0.342E-04
RMM:  14    -0.874850239030E+02   -0.59813E-05   -0.28051E-07    60   0.160E-03    0.179E-04
RMM:  15    -0.874850285824E+02   -0.46793E-05   -0.15538E-07    56   0.129E-03    0.946E-05
RMM:  16    -0.874850303985E+02   -0.18161E-05   -0.57572E-08    51   0.959E-04    0.603E-05
RMM:  17    -0.874850316380E+02   -0.12395E-05   -0.13900E-08    47   0.878E-04    0.358E-05
RMM:  18    -0.874850323761E+02   -0.73807E-06   -0.87040E-09    46   0.904E-04
  26 F= -.87485032E+02 E0= -.87485032E+02  d E =-.435653E-11
       N       E                     dE             d eps       ncg     rms          rms(c)
DAV:   1    -0.874935860959E+02   -0.85545E-02   -0.20223E-01    80   0.254E+00    0.406E-01
RMM:   2    -0.874877079511E+02    0.58781E-02   -0.12912E-02    85   0.591E-01    0.246E-01
RMM:   3    -0.874850213090E+02    0.26866E-02   -0.11140E-02    93   0.384E-01    0.460E-02
RMM:   4    -0.874850267612E+02   -0.54523E-05   -0.22558E-04    95   0.560E-02    0.275E-02
RMM:   5    -0.874850607546E+02   -0.33993E-04   -0.69683E-05    90   0.352E-02    0.132E-02
RMM:   6    -0.874850857955E+02   -0.25041E-04   -0.68686E-05    89   0.290E-02    0.983E-03
RMM:   7    -0.874851278396E+02   -0.42044E-04   -0.13580E-05    89   0.161E-02    0.389E-03
RMM:   8    -0.874852128231E+02   -0.84984E-04   -0.10846E-05    80   0.108E-02    0.535E-03
RMM:   9    -0.874852446264E+02   -0.31803E-04   -0.10000E-05    87   0.107E-02    0.182E-03
RMM:  10    -0.874852801535E+02   -0.35527E-04   -0.14143E-06    63   0.372E-03    0.146E-03
RMM:  11    -0.874852943804E+02   -0.14227E-04   -0.97452E-07    69   0.326E-03    0.424E-04
RMM:  12    -0.874853089882E+02   -0.14608E-04   -0.68634E-07    58   0.250E-03    0.434E-04
RMM:  13    -0.874853129446E+02   -0.39564E-05   -0.28980E-07    56   0.157E-03    0.208E-04
RMM:  14    -0.874853168061E+02   -0.38615E-05   -0.18710E-07    61   0.151E-03    0.214E-04
RMM:  15    -0.874853178719E+02   -0.10658E-05   -0.49288E-08    53   0.866E-04    0.944E-05
RMM:  16    -0.874853202236E+02   -0.23518E-05   -0.54249E-08    44   0.109E-03    0.176E-04
RMM:  17    -0.874853206131E+02   -0.38945E-06    0.00000E+00    47   0.782E-04
  27 F= -.87485321E+02 E0= -.87485321E+02  d E =-.484175E-11
       N       E                     dE             d eps       ncg     rms          rms(c)
DAV:   1    -0.874922028471E+02   -0.68826E-02   -0.16732E-01    88   0.232E+00    0.368E-01
RMM:   2    -0.874875118851E+02    0.46910E-02   -0.10420E-02    84   0.535E-01    0.224E-01
RMM:   3    -0.874853314329E+02    0.21805E-02   -0.88705E-03    93   0.346E-01    0.400E-02
RMM:   4    -0.874853354582E+02   -0.40253E-05   -0.17785E-04    96   0.489E-02    0.251E-02
RMM:   5    -0.874853635219E+02   -0.28064E-04   -0.57584E-05    89   0.327E-02    0.119E-02
RMM:   6    -0.874853808464E+02   -0.17324E-04   -0.47125E-05    91   0.242E-02    0.737E-03
RMM:   7    -0.874854179328E+02   -0.37086E-04   -0.72619E-06    84   0.116E-02    0.316E-03
RMM:   8    -0.874854883891E+02   -0.70456E-04   -0.80560E-06    74   0.941E-03    0.442E-03
RMM:   9    -0.874855203358E+02   -0.31947E-04   -0.85180E-06    84   0.960E-03    0.170E-03
RMM:  10    -0.874855503507E+02   -0.30015E-04   -0.14318E-06    67   0.359E-03    0.126E-03
RMM:  11    -0.874855634587E+02   -0.13108E-04   -0.94577E-07    69   0.327E-03    0.482E-04
RMM:  12    -0.874855744452E+02   -0.10987E-04   -0.49140E-07    57   0.204E-03    0.295E-04
RMM:  13    -0.874855793938E+02   -0.49486E-05   -0.28831E-07    54   0.163E-03    0.176E-04
RMM:  14    -0.874855828078E+02   -0.34140E-05   -0.17920E-07    60   0.143E-03    0.121E-04
RMM:  15    -0.874855837638E+02   -0.95603E-06   -0.54510E-08    55   0.841E-04
  28 F= -.87485584E+02 E0= -.87485584E+02  d E =-.421455E-11
       N       E                     dE             d eps       ncg     rms          rms(c)
DAV:   1    -0.874922295666E+02   -0.66468E-02   -0.17251E-01    88   0.241E+00    0.374E-01
RMM:   2    -0.874878537785E+02    0.43758E-02   -0.98151E-03    83   0.521E-01    0.234E-01
RMM:   3    -0.874856676655E+02    0.21861E-02   -0.83341E-03    93   0.351E-01    0.371E-02
RMM:   4    -0.874856617660E+02    0.58995E-05   -0.14521E-04    97   0.444E-02    0.234E-02
RMM:   5    -0.874856787860E+02   -0.17020E-04   -0.58609E-05    89   0.331E-02    0.115E-02
RMM:   6    -0.874856922060E+02   -0.13420E-04   -0.32727E-05    92   0.209E-02    0.568E-03
RMM:   7    -0.874857253175E+02   -0.33111E-04   -0.49315E-06    80   0.880E-03    0.285E-03
RMM:   8    -0.874857923704E+02   -0.67053E-04   -0.80482E-06    71   0.887E-03    0.378E-03
RMM:   9    -0.874858258481E+02   -0.33478E-04   -0.79941E-06    83   0.907E-03    0.182E-03
RMM:  10    -0.874858515610E+02   -0.25713E-04   -0.14489E-06    66   0.364E-03    0.116E-03
RMM:  11    -0.874858642101E+02   -0.12649E-04   -0.10684E-06    70   0.331E-03    0.506E-04
RMM:  12    -0.874858743405E+02   -0.10130E-04   -0.51609E-07    58   0.205E-03    0.270E-04
RMM:  13    -0.874858788246E+02   -0.44841E-05   -0.28158E-07    54   0.158E-03    0.176E-04
RMM:  14    -0.874858821140E+02   -0.32893E-05   -0.18987E-07    60   0.147E-03    0.133E-04
RMM:  15    -0.874858829695E+02   -0.85553E-06   -0.53778E-08    53   0.895E-04
  29 F= -.87485883E+02 E0= -.87485883E+02  d E =-.327375E-11
       N       E                     dE             d eps       ncg     rms          rms(c)
DAV:   1    -0.874935836399E+02   -0.77015E-02   -0.18966E-01    88   0.246E+00    0.403E-01
RMM:   2    -0.874885458866E+02    0.50378E-02   -0.10613E-02    83   0.512E-01    0.257E-01
RMM:   3    -0.874859323778E+02    0.26135E-02   -0.98969E-03    91   0.378E-01    0.406E-02
RMM:   4    -0.874859263920E+02    0.59858E-05   -0.12174E-04    97   0.430E-02    0.199E-02
RMM:   5    -0.874859502666E+02   -0.23875E-04   -0.50520E-05    89   0.306E-02    0.108E-02
RMM:   6    -0.874859674044E+02   -0.17138E-04   -0.32587E-05    92   0.211E-02    0.606E-03
RMM:   7    -0.874859976917E+02   -0.30287E-04   -0.55839E-06    79   0.937E-03    0.284E-03
RMM:   8    -0.874860672891E+02   -0.69597E-04   -0.10773E-05    73   0.989E-03    0.393E-03
RMM:   9    -0.874860902086E+02   -0.22920E-04   -0.64993E-06    81   0.851E-03    0.140E-03
RMM:  10    -0.874861135728E+02   -0.23364E-04   -0.16708E-06    64   0.372E-03    0.939E-04
RMM:  11    -0.874861215828E+02   -0.80100E-05   -0.76928E-07    64   0.262E-03    0.309E-04
RMM:  12    -0.874861312418E+02   -0.96590E-05   -0.77939E-07    61   0.233E-03    0.254E-04
RMM:  13    -0.874861329939E+02   -0.17522E-05   -0.20030E-07    58   0.132E-03    0.180E-04
RMM:  14    -0.874861360877E+02   -0.30937E-05   -0.15031E-07    48   0.133E-03    0.155E-04
RMM:  15    -0.874861367829E+02   -0.69520E-06   -0.46581E-08    55   0.100E-03
  30 F= -.87486137E+02 E0= -.87486137E+02  d E =-.231857E-11
       N       E                     dE             d eps       ncg     rms          rms(c)
DAV:   1    -0.874925187882E+02   -0.63827E-02   -0.13926E-01    88   0.203E+00    0.353E-01
RMM:   2    -0.874882132396E+02    0.43055E-02   -0.85158E-03    84   0.447E-01    0.222E-01
RMM:   3    -0.874860817129E+02    0.21315E-02   -0.86784E-03    93   0.337E-01    0.373E-02
RMM:   4    -0.874861025229E+02   -0.20810E-04   -0.10858E-04    95   0.431E-02    0.159E-02
RMM:   5    -0.874861460161E+02   -0.43493E-04   -0.33679E-05    88   0.235E-02    0.924E-03
RMM:   6    -0.874861609421E+02   -0.14926E-04   -0.25092E-05    88   0.178E-02    0.555E-03
RMM:   7    -0.874861941428E+02   -0.33201E-04   -0.55203E-06    75   0.905E-03    0.271E-03
RMM:   8    -0.874862311646E+02   -0.37022E-04   -0.58201E-06    74   0.749E-03    0.305E-03
RMM:   9    -0.874862509645E+02   -0.19800E-04   -0.50438E-06    77   0.714E-03    0.114E-03
RMM:  10    -0.874862632538E+02   -0.12289E-04   -0.13449E-06    66   0.355E-03    0.140E-03
RMM:  11    -0.874862683234E+02   -0.50696E-05   -0.62874E-07    64   0.256E-03    0.409E-04
RMM:  12    -0.874862736768E+02   -0.53533E-05   -0.59630E-07    61   0.256E-03    0.600E-04
RMM:  13    -0.874862750400E+02   -0.13632E-05   -0.16337E-07    56   0.128E-03    0.349E-04
RMM:  14    -0.874862772684E+02   -0.22285E-05   -0.19758E-07    63   0.167E-03    0.338E-04
RMM:  15    -0.874862776284E+02   -0.36000E-06   -0.29099E-08    52   0.800E-04
  31 F= -.87486278E+02 E0= -.87486278E+02  d E =-.158219E-11
       N       E                     dE             d eps       ncg     rms          rms(c)
DAV:   1    -0.874903190791E+02   -0.40418E-02   -0.84676E-02    88   0.163E+00    0.274E-01
RMM:   2    -0.874875518832E+02    0.27672E-02   -0.54188E-03    81   0.369E-01    0.170E-01
RMM:   3    -0.874862224294E+02    0.13295E-02   -0.55954E-03    95   0.273E-01    0.297E-02
RMM:   4    -0.874862447678E+02   -0.22338E-04   -0.74792E-05    95   0.363E-02    0.134E-02
RMM:   5    -0.874862796288E+02   -0.34861E-04   -0.19846E-05    85   0.179E-02    0.752E-03
RMM:   6    -0.874862938078E+02   -0.14179E-04   -0.19196E-05    86   0.155E-02    0.497E-03
RMM:   7    -0.874863197839E+02   -0.25976E-04   -0.40091E-06    73   0.807E-03    0.216E-03
RMM:   8    -0.874863452734E+02   -0.25489E-04   -0.34018E-06    64   0.585E-03    0.233E-03
RMM:   9    -0.874863601882E+02   -0.14915E-04   -0.34115E-06    70   0.562E-03    0.803E-04
RMM:  10    -0.874863671560E+02   -0.69678E-05   -0.74038E-07    65   0.279E-03    0.106E-03
RMM:  11    -0.874863716730E+02   -0.45170E-05   -0.55105E-07    63   0.232E-03    0.270E-04
RMM:  12    -0.874863749020E+02   -0.32290E-05   -0.33993E-07    65   0.188E-03    0.360E-04
RMM:  13    -0.874863762525E+02   -0.13506E-05   -0.12118E-07    56   0.116E-03    0.992E-05
RMM:  14    -0.874863777197E+02   -0.14671E-05   -0.75156E-08    53   0.115E-03    0.125E-04
RMM:  15    -0.874863782335E+02   -0.51382E-06   -0.11443E-08    48   0.790E-04
  32 F= -.87486378E+02 E0= -.87486378E+02  d E =-.145995E-11
       N       E                     dE             d eps       ncg     rms          rms(c)
DAV:   1    -0.874920304159E+02   -0.56527E-02   -0.12027E-01    88   0.198E+00    0.324E-01
RMM:   2    -0.874881683932E+02    0.38620E-02   -0.75717E-03    83   0.444E-01    0.202E-01
RMM:   3    -0.874863191098E+02    0.18493E-02   -0.78912E-03    94   0.331E-01    0.355E-02
RMM:   4    -0.874863438920E+02   -0.24782E-04   -0.10519E-04    95   0.440E-02    0.155E-02
RMM:   5    -0.874863873438E+02   -0.43452E-04   -0.27271E-05    89   0.215E-02    0.864E-03
RMM:   6    -0.874864061020E+02   -0.18758E-04   -0.24881E-05    88   0.180E-02    0.577E-03
RMM:   7    -0.874864409937E+02   -0.34892E-04   -0.53994E-06    76   0.939E-03    0.247E-03
RMM:   8    -0.874864763066E+02   -0.35313E-04   -0.48877E-06    72   0.708E-03    0.292E-03
RMM:   9    -0.874864951187E+02   -0.18812E-04   -0.44497E-06    80   0.654E-03    0.916E-04
RMM:  10    -0.874865066048E+02   -0.11486E-04   -0.10593E-06    66   0.316E-03    0.110E-03
RMM:  11    -0.874865110389E+02   -0.44341E-05   -0.54251E-07    65   0.218E-03    0.431E-04
RMM:  12    -0.874865158643E+02   -0.48253E-05   -0.52200E-07    65   0.238E-03    0.492E-04
RMM:  13    -0.874865170480E+02   -0.11837E-05   -0.13993E-07    57   0.115E-03    0.263E-04
RMM:  14    -0.874865187666E+02   -0.17186E-05   -0.10552E-07    57   0.132E-03    0.177E-04
RMM:  15    -0.874865192180E+02   -0.45144E-06   -0.15921E-08    49   0.824E-04
  33 F= -.87486519E+02 E0= -.87486519E+02  d E =-.100509E-11
       N       E                     dE             d eps       ncg     rms          rms(c)
DAV:   1    -0.875009762471E+02   -0.14457E-01   -0.32527E-01    88   0.327E+00    0.525E-01
RMM:   2    -0.874911337452E+02    0.98425E-02   -0.19508E-02    84   0.715E-01    0.329E-01
RMM:   3    -0.874863247681E+02    0.48090E-02   -0.20262E-02    93   0.535E-01    0.572E-02
RMM:   4    -0.874863659959E+02   -0.41228E-04   -0.26160E-04    95   0.692E-02    0.249E-02
RMM:   5    -0.874864636994E+02   -0.97704E-04   -0.80552E-05    89   0.376E-02    0.137E-02
RMM:   6    -0.874865032642E+02   -0.39565E-04   -0.59248E-05    90   0.277E-02    0.881E-03
RMM:   7    -0.874865770588E+02   -0.73795E-04   -0.14418E-05    83   0.149E-02    0.424E-03
RMM:   8    -0.874866610248E+02   -0.83966E-04   -0.14405E-05    76   0.121E-02    0.518E-03
RMM:   9    -0.874867027086E+02   -0.41684E-04   -0.13995E-05    81   0.117E-02    0.220E-03
RMM:  10    -0.874867322580E+02   -0.29549E-04   -0.30774E-06    66   0.485E-03    0.189E-03
RMM:  11    -0.874867421070E+02   -0.98490E-05   -0.15060E-06    73   0.406E-03    0.491E-04
RMM:  12    -0.874867509936E+02   -0.88866E-05   -0.57648E-07    60   0.227E-03    0.232E-04
RMM:  13    -0.874867548815E+02   -0.38878E-05   -0.35873E-07    62   0.179E-03    0.283E-04
RMM:  14    -0.874867578148E+02   -0.29333E-05   -0.16558E-07    59   0.136E-03    0.133E-04
RMM:  15    -0.874867587122E+02   -0.89739E-06   -0.48730E-08    53   0.932E-04
  34 F= -.87486759E+02 E0= -.87486759E+02  d E =-.574500E-12
       N       E                     dE             d eps       ncg     rms          rms(c)
DAV:   1    -0.875078269072E+02   -0.21069E-01   -0.51344E-01    80   0.407E+00    0.648E-01
RMM:   2    -0.874936349804E+02    0.14192E-01   -0.28945E-02    83   0.862E-01    0.408E-01
RMM:   3    -0.874864367890E+02    0.71982E-02   -0.28944E-02    94   0.636E-01    0.683E-02
RMM:   4    -0.874864472742E+02   -0.10485E-04   -0.37864E-04    96   0.788E-02    0.335E-02
RMM:   5    -0.874865498706E+02   -0.10260E-03   -0.15443E-04    89   0.525E-02    0.176E-02
RMM:   6    -0.874866061358E+02   -0.56265E-04   -0.91525E-05    91   0.335E-02    0.102E-02
RMM:   7    -0.874867169278E+02   -0.11079E-03   -0.24994E-05    87   0.187E-02    0.595E-03
RMM:   8    -0.874868821428E+02   -0.16522E-03   -0.32547E-05    78   0.173E-02    0.676E-03
RMM:   9    -0.874869389337E+02   -0.56791E-04   -0.27449E-05    90   0.161E-02    0.417E-03
RMM:  10    -0.874869879320E+02   -0.48998E-04   -0.44568E-06    74   0.622E-03    0.204E-03
RMM:  11    -0.874870090247E+02   -0.21093E-04   -0.34725E-06    78   0.602E-03    0.128E-03
RMM:  12    -0.874870234437E+02   -0.14419E-04   -0.87487E-07    66   0.302E-03    0.425E-04
RMM:  13    -0.874870284618E+02   -0.50181E-05   -0.31522E-07    59   0.170E-03    0.257E-04
RMM:  14    -0.874870339746E+02   -0.55129E-05   -0.26906E-07    63   0.168E-03    0.182E-04
RMM:  15    -0.874870347156E+02   -0.74092E-06   -0.71690E-08    56   0.978E-04
  35 F= -.87487035E+02 E0= -.87487035E+02  d E =-.346222E-12
       N       E                     dE             d eps       ncg     rms          rms(c)
DAV:   1    -0.874986400251E+02   -0.11606E-01   -0.30303E-01    80   0.312E+00    0.489E-01
RMM:   2    -0.874908810098E+02    0.77590E-02   -0.16919E-02    82   0.664E-01    0.307E-01
RMM:   3    -0.874868191602E+02    0.40618E-02   -0.15152E-02    93   0.462E-01    0.479E-02
RMM:   4    -0.874868115585E+02    0.76017E-05   -0.26284E-04    98   0.580E-02    0.302E-02
RMM:   5    -0.874868522767E+02   -0.40718E-04   -0.11435E-04    90   0.460E-02    0.155E-02
RMM:   6    -0.874868826480E+02   -0.30371E-04   -0.47478E-05    92   0.240E-02    0.532E-03
RMM:   7    -0.874869554747E+02   -0.72827E-04   -0.11469E-05    76   0.107E-02    0.482E-03
RMM:   8    -0.874870928844E+02   -0.13741E-03   -0.24395E-05    70   0.137E-02    0.378E-03
RMM:   9    -0.874871435545E+02   -0.50670E-04   -0.16634E-05    83   0.116E-02    0.378E-03
RMM:  10    -0.874871781628E+02   -0.34608E-04   -0.27588E-06    70   0.546E-03    0.137E-03
RMM:  11    -0.874872041166E+02   -0.25954E-04   -0.35691E-06    74   0.593E-03    0.158E-03
RMM:  12    -0.874872150808E+02   -0.10964E-04   -0.61306E-07    70   0.267E-03    0.622E-04
RMM:  13    -0.874872218444E+02   -0.67636E-05   -0.44643E-07    64   0.215E-03    0.314E-04
RMM:  14    -0.874872262808E+02   -0.44365E-05   -0.20340E-07    55   0.141E-03    0.145E-04
RMM:  15    -0.874872282646E+02   -0.19838E-05   -0.89333E-08    55   0.114E-03    0.125E-04
RMM:  16    -0.874872303083E+02   -0.20437E-05   -0.47737E-08    51   0.104E-03    0.564E-05
RMM:  17    -0.874872312690E+02   -0.96073E-06   -0.15383E-08    50   0.885E-04
  36 F= -.87487231E+02 E0= -.87487231E+02  d E =-.349372E-12
       N       E                     dE             d eps       ncg     rms          rms(c)
DAV:   1    -0.874911562297E+02   -0.39259E-02   -0.10259E-01    88   0.184E+00    0.283E-01
RMM:   2    -0.874885078455E+02    0.26484E-02   -0.59932E-03    83   0.407E-01    0.176E-01
RMM:   3    -0.874871622656E+02    0.13456E-02   -0.50207E-03    94   0.267E-01    0.285E-02
RMM:   4    -0.874871545485E+02    0.77171E-05   -0.10346E-04    96   0.363E-02    0.192E-02
RMM:   5    -0.874871626327E+02   -0.80843E-05   -0.45230E-05    91   0.295E-02    0.103E-02
RMM:   6    -0.874871710603E+02   -0.84276E-05   -0.24717E-05    92   0.180E-02    0.409E-03
RMM:   7    -0.874871980303E+02   -0.26970E-04   -0.37504E-06    72   0.730E-03    0.275E-03
RMM:   8    -0.874872516310E+02   -0.53601E-04   -0.62965E-06    75   0.741E-03    0.279E-03
RMM:   9    -0.874872810048E+02   -0.29374E-04   -0.62924E-06    80   0.745E-03    0.174E-03
RMM:  10    -0.874873012415E+02   -0.20237E-04   -0.10266E-06    66   0.331E-03    0.650E-04
RMM:  11    -0.874873132203E+02   -0.11979E-04   -0.87337E-07    63   0.290E-03    0.554E-04
RMM:  12    -0.874873217461E+02   -0.85258E-05   -0.50636E-07    59   0.187E-03    0.228E-04
RMM:  13    -0.874873253619E+02   -0.36158E-05   -0.26614E-07    61   0.151E-03    0.174E-04
RMM:  14    -0.874873274736E+02   -0.21117E-05   -0.11174E-07    57   0.112E-03    0.106E-04
RMM:  15    -0.874873290319E+02   -0.15583E-05   -0.53822E-08    52   0.996E-04    0.584E-05
RMM:  16    -0.874873303231E+02   -0.12912E-05   -0.28469E-08    48   0.915E-04    0.684E-05
RMM:  17    -0.874873308047E+02   -0.48169E-06   -0.56126E-09    47   0.814E-04
  37 F= -.87487331E+02 E0= -.87487331E+02  d E =-.373527E-12
       N       E                     dE             d eps       ncg     rms          rms(c)
DAV:   1    -0.874897499377E+02   -0.24196E-02   -0.61167E-02    88   0.140E+00    0.221E-01
RMM:   2    -0.874881058106E+02    0.16441E-02   -0.35608E-03    83   0.314E-01    0.136E-01
RMM:   3    -0.874873016671E+02    0.80414E-03   -0.31998E-03    94   0.209E-01    0.230E-02
RMM:   4    -0.874872995340E+02    0.21331E-05   -0.57201E-05    95   0.280E-02    0.150E-02
RMM:   5    -0.874873073098E+02   -0.77758E-05   -0.27391E-05    91   0.227E-02    0.821E-03
RMM:   6    -0.874873119560E+02   -0.46462E-05   -0.16281E-05    93   0.146E-02    0.333E-03
RMM:   7    -0.874873287736E+02   -0.16818E-04   -0.20803E-06    65   0.592E-03    0.210E-03
RMM:   8    -0.874873582442E+02   -0.29471E-04   -0.28773E-06    68   0.504E-03    0.196E-03
RMM:   9    -0.874873758909E+02   -0.17647E-04   -0.27880E-06    72   0.490E-03    0.782E-04
RMM:  10    -0.874873897687E+02   -0.13878E-04   -0.69946E-07    60   0.251E-03    0.677E-04
RMM:  11    -0.874873981217E+02   -0.83529E-05   -0.55688E-07    64   0.221E-03    0.260E-04
RMM:  12    -0.874874041847E+02   -0.60631E-05   -0.35441E-07    57   0.169E-03    0.268E-04
RMM:  13    -0.874874057260E+02   -0.15412E-05   -0.13374E-07    56   0.109E-03    0.136E-04
RMM:  14    -0.874874078699E+02   -0.21439E-05   -0.88977E-08    53   0.113E-03    0.118E-04
RMM:  15    -0.874874087270E+02   -0.85710E-06   -0.19137E-08    50   0.868E-04
  38 F= -.87487409E+02 E0= -.87487409E+02  d E =-.337340E-12
       N       E                     dE             d eps       ncg     rms          rms(c)
DAV:   1    -0.874932135177E+02   -0.58056E-02   -0.15526E-01    88   0.224E+00    0.349E-01
RMM:   2    -0.874892695012E+02    0.39440E-02   -0.83987E-03    82   0.482E-01    0.215E-01
RMM:   3    -0.874873280358E+02    0.19415E-02   -0.77956E-03    94   0.331E-01    0.365E-02
RMM:   4    -0.874873195312E+02    0.85045E-05   -0.12643E-04    95   0.430E-02    0.231E-02
RMM:   5    -0.874873386906E+02   -0.19159E-04   -0.68719E-05    90   0.356E-02    0.125E-02
RMM:   6    -0.874873506562E+02   -0.11966E-04   -0.35729E-05    92   0.218E-02    0.505E-03
RMM:   7    -0.874873885874E+02   -0.37931E-04   -0.52771E-06    79   0.896E-03    0.337E-03
RMM:   8    -0.874874630624E+02   -0.74475E-04   -0.87323E-06    72   0.888E-03    0.354E-03
RMM:   9    -0.874874964104E+02   -0.33348E-04   -0.78585E-06    80   0.868E-03    0.198E-03
RMM:  10    -0.874875268996E+02   -0.30489E-04   -0.15705E-06    64   0.386E-03    0.101E-03
RMM:  11    -0.874875387132E+02   -0.11814E-04   -0.10401E-06    68   0.331E-03    0.532E-04
RMM:  12    -0.874875512308E+02   -0.12518E-04   -0.66851E-07    57   0.224E-03    0.341E-04
RMM:  13    -0.874875545606E+02   -0.33299E-05   -0.27907E-07    59   0.159E-03    0.170E-04
RMM:  14    -0.874875582193E+02   -0.36587E-05   -0.18077E-07    59   0.140E-03    0.192E-04
RMM:  15    -0.874875590749E+02   -0.85562E-06   -0.49211E-08    54   0.889E-04
  39 F= -.87487559E+02 E0= -.87487559E+02  d E =-.308207E-12
       N       E                     dE             d eps       ncg     rms          rms(c)
DAV:   1    -0.875036803557E+02   -0.16122E-01   -0.44159E-01    80   0.381E+00    0.584E-01
RMM:   2    -0.874926441670E+02    0.11036E-01   -0.23428E-02    83   0.805E-01    0.360E-01
RMM:   3    -0.874872125346E+02    0.54316E-02   -0.21810E-02    92   0.562E-01    0.644E-02
RMM:   4    -0.874872014548E+02    0.11080E-04   -0.34516E-04    95   0.742E-02    0.378E-02
RMM:   5    -0.874872856458E+02   -0.84191E-04   -0.18567E-04    91   0.563E-02    0.190E-02
RMM:   6    -0.874873457771E+02   -0.60131E-04   -0.12097E-04    93   0.401E-02    0.133E-02
RMM:   7    -0.874874446079E+02   -0.98831E-04   -0.29474E-05    87   0.223E-02    0.587E-03
RMM:   8    -0.874876449818E+02   -0.20037E-03   -0.38435E-05    76   0.199E-02    0.973E-03
RMM:   9    -0.874876990515E+02   -0.54070E-04   -0.28687E-05    91   0.187E-02    0.293E-03
RMM:  10    -0.874877626046E+02   -0.63553E-04   -0.49906E-06    72   0.616E-03    0.285E-03
RMM:  11    -0.874877911395E+02   -0.28535E-04   -0.28000E-06    74   0.525E-03    0.689E-04
RMM:  12    -0.874878098887E+02   -0.18749E-04   -0.86400E-07    66   0.297E-03    0.375E-04
RMM:  13    -0.874878219794E+02   -0.12091E-04   -0.62693E-07    60   0.225E-03    0.406E-04
RMM:  14    -0.874878287920E+02   -0.68126E-05   -0.30641E-07    60   0.166E-03    0.220E-04
RMM:  15    -0.874878315367E+02   -0.27447E-05   -0.99635E-08    60   0.123E-03    0.146E-04
RMM:  16    -0.874878344281E+02   -0.28914E-05   -0.68556E-08    55   0.115E-03    0.635E-05
RMM:  17    -0.874878348989E+02   -0.47084E-06   -0.37485E-09    48   0.765E-04
  40 F= -.87487835E+02 E0= -.87487835E+02  d E =-.289194E-12
       N       E                     dE             d eps       ncg     rms          rms(c)
DAV:   1    -0.875320593946E+02   -0.44225E-01   -0.11255E+00    80   0.606E+00    0.943E-01
RMM:   2    -0.875011677440E+02    0.30892E-01   -0.64841E-02    84   0.134E+00    0.576E-01
RMM:   3    -0.874867354102E+02    0.14432E-01   -0.61041E-02    95   0.927E-01    0.112E-01
RMM:   4    -0.874867882940E+02   -0.52884E-04   -0.97802E-04    95   0.131E-01    0.588E-02
RMM:   5    -0.874870748832E+02   -0.28659E-03   -0.47419E-04    92   0.875E-02    0.313E-02
RMM:   6    -0.874872385295E+02   -0.16365E-03   -0.41748E-04    93   0.743E-02    0.279E-02
RMM:   7    -0.874874766664E+02   -0.23814E-03   -0.12275E-04    87   0.455E-02    0.922E-03
RMM:   8    -0.874878601570E+02   -0.38349E-03   -0.11032E-04    78   0.362E-02    0.192E-02
RMM:   9    -0.874879730438E+02   -0.11289E-03   -0.74116E-05    92   0.305E-02    0.252E-03
RMM:  10    -0.874880709932E+02   -0.97949E-04   -0.18627E-05    88   0.132E-02    0.606E-03
RMM:  11    -0.874881234159E+02   -0.52423E-04   -0.58517E-06    80   0.811E-03    0.171E-03
RMM:  12    -0.874881585374E+02   -0.35121E-04   -0.21774E-06    71   0.471E-03    0.735E-04
RMM:  13    -0.874881845728E+02   -0.26035E-04   -0.11478E-06    66   0.318E-03    0.384E-04
RMM:  14    -0.874881963319E+02   -0.11759E-04   -0.69118E-07    68   0.260E-03    0.608E-04
RMM:  15    -0.874882035307E+02   -0.71988E-05   -0.21381E-07    63   0.158E-03    0.401E-04
RMM:  16    -0.874882065435E+02   -0.30128E-05   -0.13319E-07    65   0.145E-03    0.200E-04
RMM:  17    -0.874882084157E+02   -0.18722E-05   -0.20017E-08    49   0.876E-04    0.135E-04
RMM:  18    -0.874882091220E+02   -0.70631E-06   -0.48042E-09    49   0.799E-04
  41 F= -.87488209E+02 E0= -.87488209E+02  d E =-.226797E-12
       N       E                     dE             d eps       ncg     rms          rms(c)
DAV:   1    -0.875345233331E+02   -0.46315E-01   -0.10440E+00    80   0.576E+00    0.930E-01
RMM:   2    -0.875015757438E+02    0.32948E-01   -0.67896E-02    85   0.135E+00    0.563E-01
RMM:   3    -0.874869639925E+02    0.14612E-01   -0.64936E-02    93   0.925E-01    0.116E-01
RMM:   4    -0.874871273946E+02   -0.16340E-03   -0.10772E-03    95   0.139E-01    0.564E-02
RMM:   5    -0.874874620527E+02   -0.33466E-03   -0.39920E-04    88   0.791E-02    0.320E-02
RMM:   6    -0.874876307055E+02   -0.16865E-03   -0.46326E-04    89   0.762E-02    0.285E-02
RMM:   7    -0.874878721417E+02   -0.24144E-03   -0.12477E-04    85   0.456E-02    0.868E-03
RMM:   8    -0.874881715641E+02   -0.29942E-03   -0.90174E-05    80   0.329E-02    0.177E-02
RMM:   9    -0.874882799403E+02   -0.10838E-03   -0.65377E-05    88   0.279E-02    0.240E-03
RMM:  10    -0.874883586676E+02   -0.78727E-04   -0.17900E-05    91   0.129E-02    0.550E-03
RMM:  11    -0.874883992440E+02   -0.40576E-04   -0.56564E-06    83   0.810E-03    0.124E-03
RMM:  12    -0.874884245862E+02   -0.25342E-04   -0.15261E-06    72   0.406E-03    0.761E-04
RMM:  13    -0.874884458535E+02   -0.21267E-04   -0.96851E-07    64   0.291E-03    0.491E-04
RMM:  14    -0.874884561655E+02   -0.10312E-04   -0.56657E-07    65   0.230E-03    0.383E-04
RMM:  15    -0.874884617762E+02   -0.56107E-05   -0.22281E-07    65   0.165E-03    0.490E-04
RMM:  16    -0.874884640504E+02   -0.22742E-05   -0.79203E-08    59   0.117E-03    0.151E-04
RMM:  17    -0.874884665897E+02   -0.25393E-05   -0.10310E-07    62   0.138E-03    0.354E-04
RMM:  18    -0.874884669483E+02   -0.35858E-06    0.00000E+00    47   0.690E-04
  42 F= -.87488467E+02 E0= -.87488467E+02  d E =-.166064E-12
       N       E                     dE             d eps       ncg     rms          rms(c)
DAV:   1    -0.875033058129E+02   -0.14839E-01   -0.29993E-01    80   0.301E+00    0.513E-01
RMM:   2    -0.874926317729E+02    0.10674E-01   -0.21220E-02    83   0.732E-01    0.307E-01
RMM:   3    -0.874879876209E+02    0.46442E-02   -0.21033E-02    95   0.508E-01    0.651E-02
RMM:   4    -0.874880891856E+02   -0.10156E-03   -0.35513E-04    94   0.779E-02    0.317E-02
RMM:   5    -0.874882333543E+02   -0.14417E-03   -0.11147E-04    88   0.416E-02    0.184E-02
RMM:   6    -0.874882983641E+02   -0.65010E-04   -0.15242E-04    89   0.422E-02    0.150E-02
RMM:   7    -0.874883891463E+02   -0.90782E-04   -0.33122E-05    84   0.236E-02    0.466E-03
RMM:   8    -0.874884922714E+02   -0.10313E-03   -0.24885E-05    78   0.168E-02    0.875E-03
RMM:   9    -0.874885307615E+02   -0.38490E-04   -0.20065E-05    85   0.147E-02    0.135E-03
RMM:  10    -0.874885553336E+02   -0.24572E-04   -0.40558E-06    82   0.642E-03    0.272E-03
RMM:  11    -0.874885692097E+02   -0.13876E-04   -0.18783E-06    70   0.461E-03    0.505E-04
RMM:  12    -0.874885777895E+02   -0.85798E-05   -0.56590E-07    67   0.234E-03    0.348E-04
RMM:  13    -0.874885840331E+02   -0.62436E-05   -0.44487E-07    61   0.203E-03    0.265E-04
RMM:  14    -0.874885875861E+02   -0.35530E-05   -0.17572E-07    57   0.138E-03    0.236E-04
RMM:  15    -0.874885898973E+02   -0.23112E-05   -0.68573E-08    54   0.109E-03    0.549E-05
RMM:  16    -0.874885912696E+02   -0.13723E-05   -0.34318E-08    51   0.100E-03    0.142E-04
RMM:  17    -0.874885917941E+02   -0.52443E-06    0.00000E+00    47   0.758E-04
  43 F= -.87488592E+02 E0= -.87488592E+02  d E =-.151758E-12
       N       E                     dE             d eps       ncg     rms          rms(c)
DAV:   1    -0.874926268476E+02   -0.40356E-02   -0.88916E-02    88   0.165E+00    0.275E-01
RMM:   2    -0.874897472735E+02    0.28796E-02   -0.60117E-03    85   0.395E-01    0.165E-01
RMM:   3    -0.874884498021E+02    0.12975E-02   -0.55139E-03    94   0.262E-01    0.340E-02
RMM:   4    -0.874884742516E+02   -0.24450E-04   -0.10652E-04    94   0.398E-02    0.193E-02
RMM:   5    -0.874885234388E+02   -0.49187E-04   -0.39800E-05    85   0.257E-02    0.102E-02
RMM:   6    -0.874885470661E+02   -0.23627E-04   -0.43710E-05    88   0.227E-02    0.771E-03
RMM:   7    -0.874885806152E+02   -0.33549E-04   -0.93621E-06    81   0.127E-02    0.272E-03
RMM:   8    -0.874886266498E+02   -0.46035E-04   -0.81521E-06    72   0.938E-03    0.447E-03
RMM:   9    -0.874886423561E+02   -0.15706E-04   -0.71471E-06    83   0.885E-03    0.118E-03
RMM:  10    -0.874886533023E+02   -0.10946E-04   -0.11489E-06    71   0.346E-03    0.125E-03
RMM:  11    -0.874886594612E+02   -0.61589E-05   -0.66705E-07    67   0.263E-03    0.419E-04
RMM:  12    -0.874886640078E+02   -0.45466E-05   -0.43634E-07    64   0.214E-03    0.303E-04
RMM:  13    -0.874886665024E+02   -0.24946E-05   -0.19236E-07    54   0.138E-03    0.104E-04
RMM:  14    -0.874886685310E+02   -0.20286E-05   -0.10016E-07    54   0.121E-03    0.960E-05
RMM:  15    -0.874886696815E+02   -0.11505E-05   -0.40801E-08    53   0.100E-03    0.697E-05
RMM:  16    -0.874886710580E+02   -0.13765E-05   -0.18916E-08    48   0.934E-04    0.920E-05
RMM:  17    -0.874886714728E+02   -0.41473E-06   -0.54437E-09    49   0.732E-04
  44 F= -.87488671E+02 E0= -.87488671E+02  d E =-.167459E-12
       N       E                     dE             d eps       ncg     rms          rms(c)
DAV:   1    -0.874910415273E+02   -0.23705E-02   -0.58049E-02    88   0.135E+00    0.217E-01
RMM:   2    -0.874893646468E+02    0.16769E-02   -0.36377E-03    84   0.311E-01    0.132E-01
RMM:   3    -0.874885817857E+02    0.78286E-03   -0.32473E-03    94   0.204E-01    0.260E-02
RMM:   4    -0.874885914096E+02   -0.96240E-05   -0.63369E-05    94   0.301E-02    0.159E-02
RMM:   5    -0.874886217854E+02   -0.30376E-04   -0.29295E-05    87   0.223E-02    0.827E-03
RMM:   6    -0.874886346709E+02   -0.12886E-04   -0.23761E-05    90   0.171E-02    0.516E-03
RMM:   7    -0.874886575016E+02   -0.22831E-04   -0.45429E-06    77   0.875E-03    0.214E-03
RMM:   8    -0.874886914820E+02   -0.33980E-04   -0.50249E-06    71   0.721E-03    0.325E-03
RMM:   9    -0.874887044164E+02   -0.12934E-04   -0.45441E-06    79   0.688E-03    0.102E-03
RMM:  10    -0.874887132941E+02   -0.88777E-05   -0.82675E-07    67   0.285E-03    0.104E-03
RMM:  11    -0.874887183301E+02   -0.50360E-05   -0.54222E-07    67   0.234E-03    0.338E-04
RMM:  12    -0.874887222235E+02   -0.38934E-05   -0.36485E-07    64   0.188E-03    0.287E-04
RMM:  13    -0.874887241414E+02   -0.19179E-05   -0.15688E-07    55   0.121E-03    0.902E-05
RMM:  14    -0.874887260363E+02   -0.18949E-05   -0.93155E-08    54   0.115E-03    0.101E-04
RMM:  15    -0.874887269299E+02   -0.89364E-06   -0.23637E-08    50   0.952E-04
  45 F= -.87488727E+02 E0= -.87488727E+02  d E =-.141844E-12
       N       E                     dE             d eps       ncg     rms          rms(c)
[...]
RMM:  18    -0.874892178215E+02   -0.59430E-06   -0.36550E-09    48   0.725E-04
  49 F= -.87489218E+02 E0= -.87489218E+02  d E =-.123169E-12
       N       E                     dE             d eps       ncg     rms          rms(c)
DAV:   1    -0.875018239423E+02   -0.12607E-01   -0.35130E-01    80   0.339E+00    0.517E-01
RMM:   2    -0.874932348653E+02    0.85891E-02   -0.18667E-02    84   0.724E-01    0.319E-01
RMM:   3    -0.874889395897E+02    0.42953E-02   -0.17120E-02    91   0.503E-01    0.637E-02
RMM:   4    -0.874888905736E+02    0.49016E-04   -0.29266E-04    96   0.684E-02    0.367E-02
RMM:   5    -0.874889221529E+02   -0.31579E-04   -0.22238E-04    91   0.605E-02    0.185E-02
RMM:   6    -0.874889570746E+02   -0.34922E-04   -0.14335E-04    93   0.436E-02    0.165E-02
RMM:   7    -0.874890127841E+02   -0.55709E-04   -0.34968E-05    87   0.250E-02    0.502E-03
RMM:   8    -0.874891593792E+02   -0.14660E-03   -0.39293E-05    78   0.220E-02    0.128E-02
RMM:   9    -0.874892026257E+02   -0.43246E-04   -0.31579E-05    90   0.201E-02    0.167E-03
RMM:  10    -0.874892580137E+02   -0.55388E-04   -0.61704E-06    76   0.706E-03    0.305E-03
RMM:  11    -0.874892797427E+02   -0.21729E-04   -0.13553E-06    69   0.376E-03    0.154E-03
RMM:  12    -0.874892955324E+02   -0.15790E-04   -0.10017E-06    63   0.320E-03    0.514E-04
RMM:  13    -0.874893093779E+02   -0.13845E-04   -0.80884E-07    63   0.263E-03    0.313E-04
RMM:  14    -0.874893152299E+02   -0.58521E-05   -0.38081E-07    65   0.181E-03    0.483E-04
RMM:  15    -0.874893193258E+02   -0.40959E-05   -0.14927E-07    58   0.123E-03    0.347E-04
RMM:  16    -0.874893210851E+02   -0.17593E-05   -0.80242E-08    60   0.118E-03    0.642E-05
RMM:  17    -0.874893224620E+02   -0.13769E-05   -0.28619E-08    55   0.102E-03    0.146E-04
RMM:  18    -0.874893229989E+02   -0.53682E-06    0.00000E+00    47   0.804E-04
  50 F= -.87489323E+02 E0= -.87489323E+02  d E =-.119673E-12
       N       E                     dE             d eps       ncg     rms          rms(c)
DAV:   1    -0.874960334999E+02   -0.67110E-02   -0.16882E-01    88   0.238E+00    0.372E-01
RMM:   2    -0.874914851034E+02    0.45484E-02   -0.94218E-03    83   0.515E-01    0.232E-01
RMM:   3    -0.874892318309E+02    0.22533E-02   -0.92911E-03    90   0.373E-01    0.501E-02
RMM:   4    -0.874892008779E+02    0.30953E-04   -0.14706E-04    96   0.522E-02    0.239E-02
RMM:   5    -0.874892236527E+02   -0.22775E-04   -0.12471E-04    93   0.442E-02    0.134E-02
RMM:   6    -0.874892393250E+02   -0.15672E-04   -0.81236E-05    92   0.337E-02    0.130E-02
RMM:   7    -0.874892719676E+02   -0.32643E-04   -0.18683E-05    83   0.182E-02    0.310E-03
RMM:   8    -0.874893316005E+02   -0.59633E-04   -0.19853E-05    81   0.161E-02    0.924E-03
RMM:   9    -0.874893640567E+02   -0.32456E-04   -0.14363E-05    83   0.137E-02    0.100E-03
RMM:  10    -0.874893837722E+02   -0.19716E-04   -0.26898E-06    72   0.552E-03    0.162E-03
RMM:  11    -0.874894010352E+02   -0.17263E-04   -0.10720E-06    61   0.301E-03    0.942E-04
RMM:  12    -0.874894115228E+02   -0.10488E-04   -0.71183E-07    62   0.242E-03    0.349E-04
RMM:  13    -0.874894184673E+02   -0.69446E-05   -0.45767E-07    58   0.186E-03    0.192E-04
RMM:  14    -0.874894212352E+02   -0.27679E-05   -0.19799E-07    60   0.140E-03    0.142E-04
RMM:  15    -0.874894232229E+02   -0.19876E-05   -0.89237E-08    59   0.120E-03    0.258E-04
RMM:  16    -0.874894243622E+02   -0.11394E-05   -0.20995E-08    51   0.886E-04    0.227E-04
RMM:  17    -0.874894256599E+02   -0.12977E-05   -0.21239E-08    50   0.989E-04    0.439E-05
RMM:  18    -0.874894257773E+02   -0.11742E-06    0.00000E+00    48   0.896E-04
  51 F= -.87489426E+02 E0= -.87489426E+02  d E =-.132149E-12
       N       E                     dE             d eps       ncg     rms          rms(c)
DAV:   1    -0.874938758108E+02   -0.44502E-02   -0.10606E-01    96   0.190E+00    0.300E-01
RMM:   2    -0.874908663732E+02    0.30094E-02   -0.60922E-03    84   0.415E-01    0.186E-01
RMM:   3    -0.874893952052E+02    0.14712E-02   -0.62966E-03    90   0.306E-01    0.445E-02
RMM:   4    -0.874893675972E+02    0.27608E-04   -0.10862E-04    96   0.458E-02    0.199E-02
RMM:   5    -0.874893837249E+02   -0.16128E-04   -0.10178E-04    93   0.398E-02    0.117E-02
RMM:   6    -0.874893913810E+02   -0.76562E-05   -0.56931E-05    92   0.286E-02    0.103E-02
RMM:   7    -0.874894155972E+02   -0.24216E-04   -0.10545E-05    82   0.138E-02    0.252E-03
RMM:   8    -0.874894484118E+02   -0.32815E-04   -0.12453E-05    81   0.131E-02    0.697E-03
RMM:   9    -0.874894755566E+02   -0.27145E-04   -0.83690E-06    74   0.103E-02    0.941E-04
RMM:  10    -0.874894865791E+02   -0.11023E-04   -0.15477E-06    72   0.459E-03    0.106E-03
RMM:  11    -0.874895002779E+02   -0.13699E-04   -0.78996E-07    58   0.266E-03    0.708E-04
RMM:  12    -0.874895066492E+02   -0.63713E-05   -0.45580E-07    58   0.187E-03    0.416E-04
RMM:  13    -0.874895120272E+02   -0.53780E-05   -0.39051E-07    63   0.193E-03    0.132E-04
RMM:  14    -0.874895140578E+02   -0.20306E-05   -0.12933E-07    58   0.114E-03    0.145E-04
RMM:  15    -0.874895155954E+02   -0.15376E-05   -0.46115E-08    53   0.905E-04    0.100E-04
RMM:  16    -0.874895165766E+02   -0.98117E-06   -0.30562E-09    47   0.835E-04
  52 F= -.87489517E+02 E0= -.87489517E+02  d E =-.136427E-12
       N       E                     dE             d eps       ncg     rms          rms(c)
DAV:   1    -0.874951041929E+02   -0.55886E-02   -0.13662E-01    88   0.208E+00    0.338E-01
RMM:   2    -0.874911762459E+02    0.39279E-02   -0.80210E-03    82   0.467E-01    0.208E-01
RMM:   3    -0.874893875557E+02    0.17887E-02   -0.80538E-03    93   0.330E-01    0.426E-02
RMM:   4    -0.874893944587E+02   -0.69029E-05   -0.12813E-04    95   0.484E-02    0.217E-02
RMM:   5    -0.874894429058E+02   -0.48447E-04   -0.65943E-05    90   0.327E-02    0.123E-02
RMM:   6    -0.874894610967E+02   -0.18191E-04   -0.52497E-05    93   0.271E-02    0.903E-03
RMM:   7    -0.874894975884E+02   -0.36492E-04   -0.11200E-05    81   0.136E-02    0.265E-03
RMM:   8    -0.874895425730E+02   -0.44985E-04   -0.85836E-06    78   0.103E-02    0.531E-03
RMM:   9    -0.874895671480E+02   -0.24575E-04   -0.79856E-06    78   0.978E-03    0.854E-04
RMM:  10    -0.874895806684E+02   -0.13520E-04   -0.14717E-06    69   0.431E-03    0.156E-03
RMM:  11    -0.874895897650E+02   -0.90966E-05   -0.82746E-07    64   0.283E-03    0.610E-04
RMM:  12    -0.874895959903E+02   -0.62253E-05   -0.63374E-07    70   0.249E-03    0.301E-04
RMM:  13    -0.874895989762E+02   -0.29859E-05   -0.26200E-07    59   0.145E-03    0.170E-04
RMM:  14    -0.874896015374E+02   -0.25612E-05   -0.16432E-07    55   0.132E-03    0.104E-04
RMM:  15    -0.874896026076E+02   -0.10702E-05   -0.61364E-08    54   0.996E-04    0.825E-05
RMM:  16    -0.874896038019E+02   -0.11943E-05   -0.16273E-08    45   0.926E-04    0.861E-05
RMM:  17    -0.874896042766E+02   -0.47472E-06    0.00000E+00    47   0.901E-04
  53 F= -.87489604E+02 E0= -.87489604E+02  d E =-.165754E-12
       N       E                     dE             d eps       ncg     rms          rms(c)
DAV:   1    -0.874918996122E+02   -0.22958E-02   -0.55526E-02    88   0.133E+00    0.212E-01
RMM:   2    -0.874902851396E+02    0.16145E-02   -0.32767E-03    82   0.298E-01    0.130E-01
RMM:   3    -0.874895448821E+02    0.74026E-03   -0.32454E-03    92   0.209E-01    0.273E-02
RMM:   4    -0.874895499819E+02   -0.50998E-05   -0.55379E-05    95   0.314E-02    0.139E-02
RMM:   5    -0.874895706921E+02   -0.20710E-04   -0.26508E-05    88   0.208E-02    0.776E-03
RMM:   6    -0.874895818328E+02   -0.11141E-04   -0.24290E-05    89   0.184E-02    0.650E-03
RMM:   7    -0.874895993612E+02   -0.17528E-04   -0.57766E-06    79   0.986E-03    0.174E-03
RMM:   8    -0.874896232627E+02   -0.23901E-04   -0.44473E-06    74   0.761E-03    0.395E-03
RMM:   9    -0.874896356496E+02   -0.12387E-04   -0.35035E-06    72   0.669E-03    0.514E-04
RMM:  10    -0.874896421152E+02   -0.64656E-05   -0.63071E-07    68   0.312E-03    0.737E-04
RMM:  11    -0.874896493836E+02   -0.72684E-05   -0.50081E-07    56   0.208E-03    0.550E-04
RMM:  12    -0.874896528902E+02   -0.35066E-05   -0.30526E-07    64   0.170E-03    0.169E-04
RMM:  13    -0.874896553769E+02   -0.24867E-05   -0.18236E-07    57   0.131E-03    0.774E-05
RMM:  14    -0.874896564124E+02   -0.10355E-05   -0.73697E-08    55   0.989E-04    0.839E-05
RMM:  15    -0.874896574900E+02   -0.10776E-05   -0.26044E-08    46   0.900E-04    0.646E-05
RMM:  16    -0.874896580358E+02   -0.54575E-06   -0.37313E-09    48   0.861E-04
  54 F= -.87489658E+02 E0= -.87489658E+02  d E =-.195259E-12
       N       E                     dE             d eps       ncg     rms          rms(c)
DAV:   1    -0.874914472279E+02   -0.17897E-02   -0.44582E-02    88   0.119E+00    0.188E-01
RMM:   2    -0.874901929407E+02    0.12543E-02   -0.26346E-03    83   0.266E-01    0.115E-01
RMM:   3    -0.874896048303E+02    0.58811E-03   -0.24398E-03    92   0.181E-01    0.209E-02
RMM:   4    -0.874896109209E+02   -0.60907E-05   -0.39447E-05    97   0.247E-02    0.122E-02
RMM:   5    -0.874896275502E+02   -0.16629E-04   -0.15502E-05    87   0.161E-02    0.616E-03
RMM:   6    -0.874896358465E+02   -0.82962E-05   -0.11692E-05    87   0.124E-02    0.369E-03
RMM:   7    -0.874896511372E+02   -0.15291E-04   -0.21513E-06    63   0.599E-03    0.152E-03
RMM:   8    -0.874896714203E+02   -0.20283E-04   -0.25010E-06    66   0.520E-03    0.222E-03
RMM:   9    -0.874896833459E+02   -0.11926E-04   -0.19973E-06    62   0.446E-03    0.463E-04
RMM:  10    -0.874896903669E+02   -0.70210E-05   -0.96071E-07    68   0.328E-03    0.931E-04
RMM:  11    -0.874896951620E+02   -0.47951E-05   -0.45762E-07    61   0.194E-03    0.473E-04
RMM:  12    -0.874896985529E+02   -0.33909E-05   -0.42326E-07    67   0.217E-03    0.395E-04
RMM:  13    -0.874896996182E+02   -0.10653E-05   -0.11374E-07    57   0.103E-03    0.227E-04
RMM:  14    -0.874897013488E+02   -0.17306E-05   -0.11241E-07    52   0.127E-03    0.181E-04
RMM:  15    -0.874897018835E+02   -0.53466E-06   -0.17162E-08    48   0.796E-04
  55 F= -.87489702E+02 E0= -.87489702E+02  d E =-.212821E-12
       N       E                     dE             d eps       ncg     rms          rms(c)
DAV:   1    -0.874937906556E+02   -0.40893E-02   -0.91624E-02    88   0.172E+00    0.277E-01
RMM:   2    -0.874909490181E+02    0.28416E-02   -0.57249E-03    83   0.394E-01    0.170E-01
RMM:   3    -0.874896187273E+02    0.13303E-02   -0.55898E-03    92   0.279E-01    0.331E-02
RMM:   4    -0.874896280848E+02   -0.93575E-05   -0.90542E-05    95   0.408E-02    0.152E-02
RMM:   5    -0.874896548309E+02   -0.26746E-04   -0.33226E-05    89   0.226E-02    0.895E-03
RMM:   6    -0.874896727277E+02   -0.17897E-04   -0.35083E-05    90   0.220E-02    0.818E-03
RMM:   7    -0.874896981945E+02   -0.25467E-04   -0.87132E-06    79   0.120E-02    0.209E-03
RMM:   8    -0.874897338754E+02   -0.35681E-04   -0.72348E-06    75   0.950E-03    0.502E-03
RMM:   9    -0.874897513879E+02   -0.17513E-04   -0.54183E-06    77   0.838E-03    0.586E-04
RMM:  10    -0.874897603313E+02   -0.89434E-05   -0.76966E-07    67   0.341E-03    0.854E-04
RMM:  11    -0.874897712093E+02   -0.10878E-04   -0.72057E-07    61   0.240E-03    0.558E-04
RMM:  12    -0.874897753354E+02   -0.41261E-05   -0.34934E-07    62   0.176E-03    0.213E-04
RMM:  13    -0.874897791072E+02   -0.37718E-05   -0.28141E-07    62   0.166E-03    0.186E-04
RMM:  14    -0.874897805829E+02   -0.14757E-05   -0.92435E-08    53   0.101E-03    0.129E-04
RMM:  15    -0.874897817202E+02   -0.11372E-05   -0.24783E-08    48   0.873E-04    0.501E-05
RMM:  16    -0.874897825110E+02   -0.79082E-06   -0.12006E-08    48   0.892E-04
  56 F= -.87489783E+02 E0= -.87489783E+02  d E =-.292752E-12
       N       E                     dE             d eps       ncg     rms          rms(c)
DAV:   1    -0.875000047180E+02   -0.10223E-01   -0.23388E-01    88   0.274E+00    0.444E-01
RMM:   2    -0.874929022882E+02    0.71024E-02   -0.14212E-02    82   0.621E-01    0.273E-01
RMM:   3    -0.874895921051E+02    0.33102E-02   -0.14067E-02    92   0.445E-01    0.554E-02
RMM:   4    -0.874895929631E+02   -0.85793E-06   -0.23473E-04    95   0.664E-02    0.235E-02
RMM:   5    -0.874896489487E+02   -0.55986E-04   -0.10150E-04    93   0.386E-02    0.145E-02
RMM:   6    -0.874896851461E+02   -0.36197E-04   -0.10060E-04    92   0.372E-02    0.144E-02
RMM:   7    -0.874897359264E+02   -0.50780E-04   -0.24337E-05    83   0.200E-02    0.321E-03
RMM:   8    -0.874898017995E+02   -0.65873E-04   -0.20980E-05    83   0.162E-02    0.899E-03
RMM:   9    -0.874898443837E+02   -0.42584E-04   -0.15026E-05    81   0.140E-02    0.950E-04
RMM:  10    -0.874898660370E+02   -0.21653E-04   -0.24227E-06    74   0.522E-03    0.136E-03
RMM:  11    -0.874898852263E+02   -0.19189E-04   -0.12850E-06    63   0.320E-03    0.603E-04
RMM:  12    -0.874898937874E+02   -0.85611E-05   -0.58134E-07    61   0.210E-03    0.453E-04
RMM:  13    -0.874899013193E+02   -0.75319E-05   -0.50868E-07    65   0.214E-03    0.153E-04
RMM:  14    -0.874899040609E+02   -0.27417E-05   -0.17684E-07    56   0.131E-03    0.164E-04
RMM:  15    -0.874899059457E+02   -0.18848E-05   -0.57928E-08    52   0.102E-03    0.897E-05
RMM:  16    -0.874899072472E+02   -0.13015E-05   -0.16342E-08    50   0.955E-04    0.359E-05
RMM:  17    -0.874899080083E+02   -0.76108E-06   -0.12436E-08    52   0.933E-04
  57 F= -.87489908E+02 E0= -.87489908E+02  d E =-.368907E-12
       N       E                     dE             d eps       ncg     rms          rms(c)
DAV:   1    -0.875051657648E+02   -0.15259E-01   -0.37040E-01    88   0.345E+00    0.558E-01
RMM:   2    -0.874945956662E+02    0.10570E-01   -0.21384E-02    81   0.767E-01    0.343E-01
RMM:   3    -0.874896551037E+02    0.49406E-02   -0.21090E-02    91   0.550E-01    0.719E-02
RMM:   4    -0.874896193106E+02    0.35793E-04   -0.34911E-04    96   0.813E-02    0.309E-02
RMM:   5    -0.874896882080E+02   -0.68897E-04   -0.20012E-04    93   0.543E-02    0.188E-02
RMM:   6    -0.874897330185E+02   -0.44810E-04   -0.17683E-04    92   0.494E-02    0.198E-02
RMM:   7    -0.874897984365E+02   -0.65418E-04   -0.42246E-05    84   0.267E-02    0.414E-03
RMM:   8    -0.874898902360E+02   -0.91800E-04   -0.38263E-05    81   0.222E-02    0.123E-02
RMM:   9    -0.874899529714E+02   -0.62735E-04   -0.26133E-05    80   0.184E-02    0.139E-03
RMM:  10    -0.874899819483E+02   -0.28977E-04   -0.40041E-06    79   0.662E-03    0.164E-03
RMM:  11    -0.874900114242E+02   -0.29476E-04   -0.18805E-06    65   0.375E-03    0.101E-03
RMM:  12    -0.874900242511E+02   -0.12827E-04   -0.73106E-07    62   0.241E-03    0.702E-04
RMM:  13    -0.874900363466E+02   -0.12096E-04   -0.77514E-07    64   0.272E-03    0.198E-04
RMM:  14    -0.874900404135E+02   -0.40668E-05   -0.24401E-07    61   0.150E-03    0.183E-04
RMM:  15    -0.874900429503E+02   -0.25369E-05   -0.93645E-08    57   0.114E-03    0.159E-04
RMM:  16    -0.874900451814E+02   -0.22310E-05   -0.44599E-08    56   0.104E-03    0.108E-04
RMM:  17    -0.874900459694E+02   -0.78797E-06   -0.68267E-09    49   0.881E-04
  58 F= -.87490046E+02 E0= -.87490046E+02  d E =-.383442E-12
       N       E                     dE             d eps       ncg     rms          rms(c)
DAV:   1    -0.874972205443E+02   -0.71754E-02   -0.18603E-01    96   0.248E+00    0.393E-01
RMM:   2    -0.874922791251E+02    0.49414E-02   -0.10095E-02    83   0.534E-01    0.242E-01
RMM:   3    -0.874899335269E+02    0.23456E-02   -0.99812E-03    92   0.386E-01    0.507E-02
RMM:   4    -0.874899035485E+02    0.29978E-04   -0.15335E-04    95   0.545E-02    0.233E-02
RMM:   5    -0.874899278773E+02   -0.24329E-04   -0.10694E-04    93   0.410E-02    0.132E-02
RMM:   6    -0.874899467526E+02   -0.18875E-04   -0.82955E-05    91   0.342E-02    0.137E-02
RMM:   7    -0.874899759801E+02   -0.29227E-04   -0.20298E-05    87   0.191E-02    0.299E-03
RMM:   8    -0.874900344003E+02   -0.58420E-04   -0.20151E-05    82   0.163E-02    0.922E-03
RMM:   9    -0.874900658065E+02   -0.31406E-04   -0.15142E-05    82   0.141E-02    0.926E-04
RMM:  10    -0.874900845457E+02   -0.18739E-04   -0.18075E-06    68   0.473E-03    0.119E-03
RMM:  11    -0.874901033772E+02   -0.18831E-04   -0.12273E-06    59   0.310E-03    0.858E-04
RMM:  12    -0.874901108333E+02   -0.74561E-05   -0.48780E-07    66   0.210E-03    0.477E-04
RMM:  13    -0.874901184588E+02   -0.76256E-05   -0.45654E-07    62   0.211E-03    0.144E-04
RMM:  14    -0.874901211426E+02   -0.26838E-05   -0.16056E-07    58   0.131E-03    0.145E-04
RMM:  15    -0.874901232676E+02   -0.21249E-05   -0.56137E-08    54   0.105E-03    0.104E-04
RMM:  16    -0.874901247143E+02   -0.14468E-05   -0.17390E-08    52   0.960E-04    0.912E-05
RMM:  17    -0.874901254711E+02   -0.75680E-06   -0.11307E-08    49   0.901E-04
  59 F= -.87490125E+02 E0= -.87490125E+02  d E =-.373271E-12
       N       E                     dE             d eps       ncg     rms          rms(c)
DAV:   1    -0.874914950674E+02   -0.13704E-02   -0.36883E-02    88   0.111E+00    0.171E-01
RMM:   2    -0.874905572570E+02    0.93781E-03   -0.19910E-03    81   0.234E-01    0.106E-01
RMM:   3    -0.874900936985E+02    0.46356E-03   -0.19068E-03    93   0.168E-01    0.203E-02
RMM:   4    -0.874900890857E+02    0.46128E-05   -0.27342E-05    95   0.219E-02    0.111E-02
RMM:   5    -0.874900930170E+02   -0.39312E-05   -0.18370E-05    93   0.179E-02    0.570E-03
RMM:   6    -0.874900970019E+02   -0.39850E-05   -0.11140E-05    87   0.125E-02    0.428E-03
RMM:   7    -0.874901044251E+02   -0.74232E-05   -0.22396E-06    64   0.670E-03    0.144E-03
RMM:   8    -0.874901215472E+02   -0.17122E-04   -0.31051E-06    65   0.657E-03    0.333E-03
RMM:   9    -0.874901302232E+02   -0.86760E-05   -0.19964E-06    64   0.501E-03    0.649E-04
RMM:  10    -0.874901356858E+02   -0.54626E-05   -0.83142E-07    67   0.338E-03    0.740E-04
RMM:  11    -0.874901425048E+02   -0.68190E-05   -0.41768E-07    55   0.184E-03    0.648E-04
RMM:  12    -0.874901454123E+02   -0.29075E-05   -0.23770E-07    66   0.154E-03    0.190E-04
RMM:  13    -0.874901485607E+02   -0.31484E-05   -0.14404E-07    52   0.120E-03    0.610E-05
RMM:  14    -0.874901496541E+02   -0.10934E-05   -0.48716E-08    52   0.920E-04    0.619E-05
RMM:  15    -0.874901506773E+02   -0.10232E-05   -0.62960E-09    47   0.852E-04    0.318E-05
RMM:  16    -0.874901511996E+02   -0.52222E-06   -0.43937E-09    48   0.893E-04
  60 F= -.87490151E+02 E0= -.87490151E+02  d E =-.329409E-12
       N       E                     dE             d eps       ncg     rms          rms(c)
DAV:   1    -0.874904262771E+02   -0.27560E-03   -0.65815E-03    84   0.462E-01    0.712E-02
RMM:   2    -0.874902385055E+02    0.18777E-03   -0.39800E-04    84   0.102E-01    0.440E-02
RMM:   3    -0.874901464621E+02    0.92043E-04   -0.37639E-04    89   0.711E-02    0.784E-03
RMM:   4    -0.874901462056E+02    0.25654E-06   -0.54424E-06    86   0.945E-03
  61 F= -.87490146E+02 E0= -.87490146E+02  d E =-.104248E-12
       N       E                     dE             d eps       ncg     rms          rms(c)
DAV:   1    -0.874902337482E+02   -0.87286E-04   -0.25189E-03    88   0.285E-01    0.433E-02
RMM:   2    -0.874901747215E+02    0.59027E-04   -0.14693E-04    81   0.621E-02    0.267E-02
RMM:   3    -0.874901521226E+02    0.22599E-04   -0.13344E-04    82   0.426E-02    0.424E-03
RMM:   4    -0.874901531742E+02   -0.10517E-05   -0.16164E-06    71   0.543E-03    0.242E-03
RMM:   5    -0.874901550158E+02   -0.18415E-05   -0.10088E-06    65   0.415E-03    0.123E-03
RMM:   6    -0.874901554336E+02   -0.41787E-06   -0.53505E-07    70   0.271E-03
  62 F= -.87490155E+02 E0= -.87490155E+02  d E =-.285825E-12
