<?xml version="1.0" encoding="ISO-8859-1"?>
<modeling>
 <generator>
  <i name="program" type="string">vasp </i>
  <i name="version" type="string">5.4.4.18Apr17-6-g9f103f2a35  </i>
  <i name="subversion" type="string">(build Sep 04 2019 18:34:39) complex            parallel </i>
  <i name="platform" type="string">LinuxIFC </i>
  <i name="date" type="string">2012 06 17 </i>
  <i name="time" type="string">18:32:01 </i>
 </generator>
 <incar>
  <i type="string" name="SYSTEM"> VaspCalc</i>
  <i type="int" name="ISTART">     1</i>
  <i type="string" name="PREC">med</i>
  <i type="string" name="ALGO"> Fast</i>
  <i type="int" name="ISPIN">     1</i>
  <i type="int" name="NELM">   400</i>
  <i type="int" name="NELMIN">     4</i>
  <i type="int" name="IBRION">    -1</i>
  <i name="EDIFF">      0.00000100</i>
  <i type="int" name="NSW">   400</i>
  <i type="int" name="ISMEAR">     0</i>
  <i name="SIGMA">      0.10000000</i>
  <i type="int" name="NWRITE">     1</i>
  <i type="logical" name="LWAVE"> F  </i>
  <i type="logical" name="LCHARG"> F  </i>
  <i type="int" name="LORBIT">    11</i>
  <v type="int" name="KPOINT_BSE">    -1     0     0     0</v>
  <i type="int" name="NELM">   400</i>
  <i type="logical" name="LDIPOL"> T  </i>
  <i type="int" name="IDIPOL">     4</i>
  <v name="DIPOL">      0.50000000      0.50000000      0.50000000</v>
 </incar>
 <structure name="primitive_cell" >
  <crystal>
   <varray name="basis" >
    <v>      20.00000000       0.00000000       0.00000000 </v>
    <v>       0.00000000      20.00000000       0.00000000 </v>
    <v>       0.00000000       0.00000000      20.00000000 </v>
   </varray>
   <i name="volume">   8000.00000000 </i>
   <varray name="rec_basis" >
    <v>       0.05000000       0.00000000       0.00000000 </v>
    <v>       0.00000000       0.05000000       0.00000000 </v>
    <v>       0.00000000       0.00000000       0.05000000 </v>
   </varray>
  </crystal>
  <varray name="positions" >
   <v>      -0.48303956       0.48231771       0.42450384 </v>
   <v>      -0.46068766      -0.47473274       0.42129739 </v>
   <v>      -0.41749591      -0.48250704       0.44267829 </v>
   <v>       0.46046439       0.41406651       0.47018254 </v>
   <v>       0.49542619      -0.43038154       0.47781379 </v>
   <v>       0.41832169       0.43807436       0.47809879 </v>
   <v>      -0.49118241       0.44253796      -0.44805986 </v>
   <v>       0.44818364       0.37077486       0.45331244 </v>
   <v>       0.46704339      -0.41480074      -0.48442976 </v>
   <v>      -0.38932896       0.48867021      -0.45702956 </v>
   <v>      -0.35631286      -0.49554419      -0.48963226 </v>
   <v>      -0.49041156      -0.48551269      -0.42400856 </v>
   <v>      -0.46851466       0.47185586      -0.41671716 </v>
   <v>       0.39097829      -0.46184444      -0.49368261 </v>
   <v>       0.36007474      -0.49887749       0.49787849 </v>
   <v>       0.47029514      -0.36684739      -0.48418125 </v>
   <v>      -0.31797336       0.47599011      -0.48460121 </v>
   <v>       0.32000000       0.49750456      -0.46229341 </v>
  </varray>
 </structure>
 <varray name="primitive_index" >
  <v type="int" >        1 </v>
  <v type="int" >       13 </v>
  <v type="int" >        2 </v>
  <v type="int" >       16 </v>
  <v type="int" >       11 </v>
  <v type="int" >        7 </v>
  <v type="int" >        4 </v>
  <v type="int" >        8 </v>
  <v type="int" >       18 </v>
  <v type="int" >        5 </v>
  <v type="int" >       15 </v>
  <v type="int" >        3 </v>
  <v type="int" >       14 </v>
  <v type="int" >       10 </v>
  <v type="int" >       17 </v>
  <v type="int" >       12 </v>
  <v type="int" >        6 </v>
  <v type="int" >        9 </v>
 </varray>
 <kpoints>
  <generation param="Gamma">
   <v type="int" name="divisions">       1        1        1 </v>
   <v name="usershift">      0.00000000       0.00000000       0.00000000 </v>
   <v name="genvec1">      1.00000000       0.00000000       0.00000000 </v>
   <v name="genvec2">      0.00000000       1.00000000       0.00000000 </v>
   <v name="genvec3">      0.00000000       0.00000000       1.00000000 </v>
   <v name="shift">      0.00000000       0.00000000       0.00000000 </v>
  </generation>
  <varray name="kpointlist" >
   <v>       0.00000000       0.00000000       0.00000000 </v>
  </varray>
  <varray name="weights" >
   <v>       1.00000000 </v>
  </varray>
 </kpoints>
 <parameters>
  <separator name="general" >
   <i type="string" name="SYSTEM">VaspCalc</i>
   <i type="logical" name="LCOMPAT"> F  </i>
  </separator>
  <separator name="electronic" >
   <i type="string" name="PREC">med</i>
   <i name="ENMAX">    400.00000000</i>
   <i name="ENAUG">    605.39200000</i>
   <i name="EDIFF">      0.00000100</i>
   <i type="int" name="IALGO">    68</i>
   <i type="int" name="IWAVPR">    10</i>
   <i type="int" name="NBANDS">    36</i>
   <i name="NELECT">     48.00000000</i>
   <i type="int" name="TURBO">     0</i>
   <i type="int" name="IRESTART">     0</i>
   <i type="int" name="NREBOOT">     0</i>
   <i type="int" name="NMIN">     0</i>
   <i name="EREF">      0.00000000</i>
   <separator name="electronic smearing" >
    <i type="int" name="ISMEAR">     0</i>
    <i name="SIGMA">      0.10000000</i>
    <i name="KSPACING">      0.50000000</i>
    <i type="logical" name="KGAMMA"> T  </i>
   </separator>
   <separator name="electronic projectors" >
    <i type="logical" name="LREAL"> F  </i>
    <v name="ROPT">      0.00000000      0.00000000</v>
    <i type="int" name="LMAXPAW">  -100</i>
    <i type="int" name="LMAXMIX">     2</i>
    <i type="logical" name="NLSPLINE"> F  </i>
   </separator>
   <separator name="electronic startup" >
    <i type="int" name="ISTART">     0</i>
    <i type="int" name="ICHARG">     2</i>
    <i type="int" name="INIWAV">     1</i>
   </separator>
   <separator name="electronic spin" >
    <i type="int" name="ISPIN">     1</i>
    <i type="logical" name="LNONCOLLINEAR"> F  </i>
    <v name="MAGMOM">      1.00000000      1.00000000      1.00000000      1.00000000      1.00000000      1.00000000      1.00000000      1.00000000      1.00000000      1.00000000      1.00000000      1.00000000      1.00000000      1.00000000      1.00000000      1.00000000      1.00000000      1.00000000</v>
    <i name="NUPDOWN">     -1.00000000</i>
    <i type="logical" name="LSORBIT"> F  </i>
    <v name="SAXIS">      0.00000000      0.00000000      1.00000000</v>
    <i type="logical" name="LSPIRAL"> F  </i>
    <v name="QSPIRAL">      0.00000000      0.00000000      0.00000000</v>
    <i type="logical" name="LZEROZ"> F  </i>
   </separator>
   <separator name="electronic exchange-correlation" >
    <i type="logical" name="LASPH"> F  </i>
    <i type="logical" name="LMETAGGA"> F  </i>
   </separator>
   <separator name="electronic convergence" >
    <i type="int" name="NELM">   400</i>
    <i type="int" name="NELMDL">     0</i>
    <i type="int" name="NELMIN">     4</i>
    <i name="ENINI">    400.00000000</i>
    <separator name="electronic convergence detail" >
     <i type="logical" name="LDIAG"> T  </i>
     <i type="logical" name="LSUBROT"> F  </i>
     <i name="WEIMIN">      0.00000000</i>
     <i name="EBREAK">      0.00000001</i>
     <i name="DEPER">      0.30000000</i>
     <i type="int" name="NRMM">     4</i>
     <i name="TIME">      0.40000000</i>
    </separator>
   </separator>
   <separator name="electronic mixer" >
    <i name="AMIX">      0.40000000</i>
    <i name="BMIX">      1.00000000</i>
    <i name="AMIN">      0.10000000</i>
    <i name="AMIX_MAG">      1.60000000</i>
    <i name="BMIX_MAG">      1.00000000</i>
    <separator name="electronic mixer details" >
     <i type="int" name="IMIX">     4</i>
     <i type="logical" name="MIXFIRST"> F  </i>
     <i type="int" name="MAXMIX">   -45</i>
     <i name="WC">    100.00000000</i>
     <i type="int" name="INIMIX">     1</i>
     <i type="int" name="MIXPRE">     1</i>
     <i type="int" name="MREMOVE">     5</i>
    </separator>
   </separator>
   <separator name="electronic dipolcorrection" >
    <i type="logical" name="LDIPOL"> T  </i>
    <i type="logical" name="LMONO"> F  </i>
    <i type="int" name="IDIPOL">     4</i>
    <i name="EPSILON">      1.00000000</i>
    <v name="DIPOL">      0.50000000      0.50000000      0.50000000</v>
    <i name="EFIELD">      0.00000000</i>
   </separator>
  </separator>
  <separator name="grids" >
   <i type="int" name="NGX">    98</i>
   <i type="int" name="NGY">    98</i>
   <i type="int" name="NGZ">    98</i>
   <i type="int" name="NGXF">   160</i>
   <i type="int" name="NGYF">   160</i>
   <i type="int" name="NGZF">   160</i>
   <i type="logical" name="ADDGRID"> F  </i>
  </separator>
  <separator name="ionic" >
   <i type="int" name="NSW">   400</i>
   <i type="int" name="IBRION">    -1</i>
   <i type="int" name="MDALGO">     0</i>
   <i type="int" name="ISIF">     2</i>
   <i name="PSTRESS">      0.00000000</i>
   <i name="EDIFFG">      0.00001000</i>
   <i type="int" name="NFREE">     0</i>
   <i name="POTIM">      0.50000000</i>
   <i name="SMASS">     -3.00000000</i>
   <i name="SCALEE">      1.00000000</i>
  </separator>
  <separator name="ionic md" >
   <i name="TEBEG">      0.00010000</i>
   <i name="TEEND">      0.00010000</i>
   <i type="int" name="NBLOCK">     1</i>
   <i type="int" name="KBLOCK">   400</i>
   <i type="int" name="NPACO">   256</i>
   <i name="APACO">     16.00000000</i>
  </separator>
  <separator name="symmetry" >
   <i type="int" name="ISYM">     2</i>
   <i name="SYMPREC">      0.00001000</i>
  </separator>
  <separator name="dos" >
   <i type="int" name="LORBIT">    11</i>
   <v name="RWIGS">     -1.00000000     -1.00000000</v>
   <i type="int" name="NEDOS">   301</i>
   <i name="EMIN">     10.00000000</i>
   <i name="EMAX">    -10.00000000</i>
   <i name="EFERMI">      0.00000000</i>
  </separator>
  <separator name="writing" >
   <i type="int" name="NWRITE">     1</i>
   <i type="logical" name="LWAVE"> F  </i>
   <i type="logical" name="LDOWNSAMPLE"> F  </i>
   <i type="logical" name="LCHARG"> F  </i>
   <i type="logical" name="LPARD"> F  </i>
   <i type="logical" name="LVTOT"> F  </i>
   <i type="logical" name="LVHAR"> F  </i>
   <i type="logical" name="LELF"> F  </i>
   <i type="logical" name="LOPTICS"> F  </i>
   <v name="STM">      0.00000000      0.00000000      0.00000000      0.00000000      0.00000000      0.00000000      0.00000000</v>
  </separator>
  <separator name="performance" >
   <i type="int" name="NPAR">     4</i>
   <i type="int" name="NSIM">     4</i>
   <i type="int" name="NBLK">    -1</i>
   <i type="logical" name="LPLANE"> T  </i>
   <i type="logical" name="LSCALAPACK"> T  </i>
   <i type="logical" name="LSCAAWARE"> F  </i>
   <i type="logical" name="LSCALU"> F  </i>
   <i type="logical" name="LASYNC"> F  </i>
   <i type="logical" name="LORBITALREAL"> F  </i>
  </separator>
  <separator name="miscellaneous" >
   <i type="int" name="IDIOT">     3</i>
   <i type="int" name="ISPECIAL">     0</i>
   <i type="logical" name="LMUSIC"> F  </i>
   <v name="POMASS">      1.00000000     16.00000000</v>
   <v name="DARWINR">      0.00000000      0.00000000</v>
   <v name="DARWINV">      1.00000000      1.00000000</v>
   <i type="logical" name="LCORR"> T  </i>
  </separator>
  <i type="logical" name="GGA_COMPAT"> T  </i>
  <i type="logical" name="LBERRY"> F  </i>
  <i type="int" name="ICORELEVEL">     0</i>
  <i type="logical" name="LDAU"> F  </i>
  <i type="int" name="I_CONSTRAINED_M">     0</i>
  <separator name="electronic exchange-correlation" >
   <i type="string" name="GGA">--</i>
   <i type="int" name="VOSKOWN">     0</i>
   <i type="logical" name="LHFCALC"> F  </i>
   <i type="string" name="PRECFOCK"></i>
   <i type="logical" name="LSYMGRAD"> F  </i>
   <i type="logical" name="LHFONE"> F  </i>
   <i type="logical" name="LRHFCALC"> F  </i>
   <i type="logical" name="LTHOMAS"> F  </i>
   <i type="logical" name="LMODELHF"> F  </i>
   <i name="ENCUT4O">     -1.00000000</i>
   <i type="int" name="EXXOEP">     0</i>
   <i type="int" name="FOURORBIT">     0</i>
   <i name="AEXX">      0.00000000</i>
   <i name="HFALPHA">      0.00000000</i>
   <i name="MCALPHA">      0.00000000</i>
   <i name="ALDAX">      1.00000000</i>
   <i name="AGGAX">      1.00000000</i>
   <i name="ALDAC">      1.00000000</i>
   <i name="AGGAC">      1.00000000</i>
   <i type="int" name="NKREDX">     1</i>
   <i type="int" name="NKREDY">     1</i>
   <i type="int" name="NKREDZ">     1</i>
   <i type="logical" name="SHIFTRED"> F  </i>
   <i type="logical" name="ODDONLY"> F  </i>
   <i type="logical" name="EVENONLY"> F  </i>
   <i type="int" name="LMAXFOCK">     0</i>
   <i type="int" name="NMAXFOCKAE">     0</i>
   <i type="logical" name="LFOCKAEDFT"> F  </i>
   <i name="HFSCREEN">      0.00000000</i>
   <i name="HFSCREENC">      0.00000000</i>
   <i type="int" name="NBANDSGWLOW">     0</i>
  </separator>
  <separator name="vdW DFT" >
   <i type="logical" name="LUSE_VDW"> F  </i>
   <i name="Zab_VDW">     -0.84910000</i>
   <i name="PARAM1">      0.12340000</i>
   <i name="PARAM2">      1.00000000</i>
   <i name="PARAM3">      0.00000000</i>
  </separator>
  <separator name="model GW" >
   <i type="int" name="MODEL_GW">     0</i>
   <i name="MODEL_EPS0">    266.66666667</i>
   <i name="MODEL_ALPHA">      1.00000000</i>
  </separator>
  <separator name="linear response parameters" >
   <i type="logical" name="LEPSILON"> F  </i>
   <i type="logical" name="LRPA"> F  </i>
   <i type="logical" name="LNABLA"> F  </i>
   <i type="logical" name="LVEL"> F  </i>
   <i type="int" name="KINTER">     0</i>
   <i name="CSHIFT">      0.10000000</i>
   <i name="OMEGAMAX">     -1.00000000</i>
   <i name="DEG_THRESHOLD">      0.00200000</i>
   <i name="RTIME">     -0.10000000</i>
   <i name="WPLASMAI">      0.00000000</i>
   <v name="DFIELD">      0.00000000      0.00000000      0.00000000</v>
   <v name="WPLASMA">      0.00000000      0.00000000      0.00000000      0.00000000      0.00000000      0.00000000      0.00000000      0.00000000      0.00000000</v>
  </separator>
  <separator name="orbital magnetization" >
   <i type="logical" name="NUCIND"> F  </i>
   <v name="MAGPOS">      0.00000000      0.00000000      0.00000000</v>
   <i type="logical" name="LNICSALL"> T  </i>
   <i type="logical" name="ORBITALMAG"> F  </i>
   <i type="logical" name="LMAGBLOCH"> F  </i>
   <i type="logical" name="LCHIMAG"> F  </i>
   <i type="logical" name="LGAUGE"> T  </i>
   <i type="int" name="MAGATOM">     0</i>
   <v name="MAGDIPOL">      0.00000000      0.00000000      0.00000000</v>
   <v name="AVECCONST">      0.00000000      0.00000000      0.00000000</v>
  </separator>
  <separator name="response functions" >
   <i type="logical" name="LADDER"> F  </i>
   <i type="logical" name="LRPAFORCE"> F  </i>
   <i type="logical" name="LFXC"> F  </i>
   <i type="logical" name="LHARTREE"> T  </i>
   <i type="int" name="IBSE">     0</i>
   <v type="int" name="KPOINT">    -1     0     0     0</v>
   <i type="logical" name="LTCTE"> F  </i>
   <i type="logical" name="LTETE"> F  </i>
   <i type="logical" name="LTRIPLET"> F  </i>
   <i type="logical" name="LFXCEPS"> F  </i>
   <i type="logical" name="LFXHEG"> F  </i>
   <i type="int" name="NATURALO">     2</i>
   <i type="logical" name="L2ORDER"> F  </i>
   <i type="logical" name="LMP2LT"> F  </i>
   <i type="logical" name="LUSEW"> F  </i>
   <i name="ENCUTGW">     -2.00000000</i>
   <i name="ENCUTGWSOFT">     -2.00000000</i>
   <i name="ENCUTLF">     -1.00000000</i>
   <i type="int" name="LMAXMP2">    -1</i>
   <i name="SCISSOR">      0.00000000</i>
   <i type="int" name="NOMEGA">     0</i>
   <i type="int" name="NOMEGAR">     0</i>
   <i type="int" name="NBANDSGW">    -1</i>
   <i type="int" name="NBANDSO">    -1</i>
   <i type="int" name="NBANDSV">    -1</i>
   <i type="int" name="NELM">   400</i>
   <i type="int" name="NELMHF">     1</i>
   <i type="int" name="DIM">     3</i>
   <i type="int" name="ANTIRES">     0</i>
   <i name="OMEGAMAX">    -30.00000000</i>
   <i name="OMEGAMIN">    -30.00000000</i>
   <i name="OMEGATL">   -200.00000000</i>
   <i type="int" name="OMEGAGRID">   140</i>
   <i name="CSHIFT">     -0.10000000</i>
   <i type="logical" name="SELFENERGY"> F  </i>
   <i type="logical" name="LSPECTRAL"> F  </i>
   <i type="logical" name="LSPECTRALGW"> F  </i>
   <i type="logical" name="LSINGLES"> F  </i>
   <i type="logical" name="LFERMIGW"> F  </i>
   <i type="logical" name="ODDONLYGW"> F  </i>
   <i type="logical" name="EVENONLYGW"> F  </i>
   <i type="int" name="NKREDLFX">     1</i>
   <i type="int" name="NKREDLFY">     1</i>
   <i type="int" name="NKREDLFZ">     1</i>
   <i type="int" name="MAXMEM">  2800</i>
   <i type="int" name="TELESCOPE">     0</i>
   <i type="int" name="TAUPAR">     1</i>
   <i type="int" name="OMEGAPAR">    -1</i>
   <i name="LAMBDA">      1.00000000</i>
  </separator>
  <separator name="External order field" >
   <i name="OFIELD_KAPPA">      0.00000000</i>
   <v name="OFIELD_K">      0.00000000      0.00000000      0.00000000</v>
   <i name="OFIELD_Q6_NEAR">      0.00000000</i>
   <i name="OFIELD_Q6_FAR">      0.00000000</i>
   <i name="OFIELD_A">      0.00000000</i>
  </separator>
 </parameters>
 <atominfo>
  <atoms>      18 </atoms>
  <types>       2 </types>
  <array name="atoms" >
   <dimension dim="1">ion</dimension>
   <field type="string">element</field>
   <field type="int">atomtype</field>
   <set>
    <rc><c>H </c><c>   1</c></rc>
    <rc><c>H </c><c>   1</c></rc>
    <rc><c>H </c><c>   1</c></rc>
    <rc><c>H </c><c>   1</c></rc>
    <rc><c>H </c><c>   1</c></rc>
    <rc><c>H </c><c>   1</c></rc>
    <rc><c>H </c><c>   1</c></rc>
    <rc><c>H </c><c>   1</c></rc>
    <rc><c>H </c><c>   1</c></rc>
    <rc><c>H </c><c>   1</c></rc>
    <rc><c>H </c><c>   1</c></rc>
    <rc><c>H </c><c>   1</c></rc>
    <rc><c>O </c><c>   2</c></rc>
    <rc><c>O </c><c>   2</c></rc>
    <rc><c>O </c><c>   2</c></rc>
    <rc><c>O </c><c>   2</c></rc>
    <rc><c>O </c><c>   2</c></rc>
    <rc><c>O </c><c>   2</c></rc>
   </set>
  </array>
  <array name="atomtypes" >
   <dimension dim="1">type</dimension>
   <field type="int">atomspertype</field>
   <field type="string">element</field>
   <field>mass</field>
   <field>valence</field>
   <field type="string">pseudopotential</field>
   <set>
    <rc><c>  12</c><c>H </c><c>      1.00000000</c><c>      1.00000000</c><c>  PAW_PBE H 15Jun2001                   </c></rc>
    <rc><c>   6</c><c>O </c><c>     16.00000000</c><c>      6.00000000</c><c>  PAW_PBE O 08Apr2002                   </c></rc>
   </set>
  </array>
 </atominfo>
 <structure name="initialpos" >
  <crystal>
   <varray name="basis" >
    <v>      20.00000000       0.00000000       0.00000000 </v>
    <v>       0.00000000      20.00000000       0.00000000 </v>
    <v>       0.00000000       0.00000000      20.00000000 </v>
   </varray>
   <i name="volume">   8000.00000000 </i>
   <varray name="rec_basis" >
    <v>       0.05000000       0.00000000       0.00000000 </v>
    <v>       0.00000000       0.05000000       0.00000000 </v>
    <v>       0.00000000       0.00000000       0.05000000 </v>
   </varray>
  </crystal>
  <varray name="positions" >
   <v>       0.51696044       0.48231771       0.42450384 </v>
   <v>       0.58250409       0.51749296       0.44267829 </v>
   <v>       0.50958844       0.51448731       0.57599144 </v>
   <v>       0.50881759       0.44253796       0.55194014 </v>
   <v>       0.61067104       0.48867021       0.54297044 </v>
   <v>       0.68202664       0.47599011       0.51539879 </v>
   <v>       0.41832169       0.43807436       0.47809879 </v>
   <v>       0.44818364       0.37077486       0.45331244 </v>
   <v>       0.32000000       0.49750456       0.53770659 </v>
   <v>       0.39097829       0.53815556       0.50631739 </v>
   <v>       0.49542619       0.56961846       0.47781379 </v>
   <v>       0.47029514       0.63315261       0.51581875 </v>
   <v>       0.53931234       0.52526726       0.42129739 </v>
   <v>       0.53148534       0.47185586       0.58328284 </v>
   <v>       0.64368714       0.50445581       0.51036774 </v>
   <v>       0.46046439       0.41406651       0.47018254 </v>
   <v>       0.36007474       0.50112251       0.49787849 </v>
   <v>       0.46704339       0.58519926       0.51557024 </v>
  </varray>
  <varray name="velocities" >
   <v>       0.00000000       0.00000000       0.00000000 </v>
   <v>       0.00000000       0.00000000       0.00000000 </v>
   <v>       0.00000000       0.00000000       0.00000000 </v>
   <v>       0.00000000       0.00000000       0.00000000 </v>
   <v>       0.00000000       0.00000000       0.00000000 </v>
   <v>       0.00000000       0.00000000       0.00000000 </v>
   <v>       0.00000000       0.00000000       0.00000000 </v>
   <v>       0.00000000       0.00000000       0.00000000 </v>
   <v>       0.00000000       0.00000000       0.00000000 </v>
   <v>       0.00000000       0.00000000       0.00000000 </v>
   <v>       0.00000000       0.00000000       0.00000000 </v>
   <v>       0.00000000       0.00000000       0.00000000 </v>
   <v>       0.00000000       0.00000000       0.00000000 </v>
   <v>       0.00000000       0.00000000       0.00000000 </v>
   <v>       0.00000000       0.00000000       0.00000000 </v>
   <v>       0.00000000       0.00000000       0.00000000 </v>
   <v>       0.00000000       0.00000000       0.00000000 </v>
   <v>       0.00000000       0.00000000       0.00000000 </v>
  </varray>
 </structure>
 <calculation>
  <scstep>
   <time name="dav">    0.57    0.57</time>
   <time name="total">    0.70    0.70</time>
   <dipole>
    <v name="dipole">      0.00000282       0.00000082      -0.00000082 </v>
    <i name="Tr[quadrupol]">     26.40803677 </i>
    <i name="Echarged">      0.00000000 </i>
    <i name="Edipol_quadrupol">      0.00000000 </i>
    <i name="Eion">      0.00000000 </i>
   </dipole>
   <energy>
    <i name="alphaZ">      1.00913064 </i>
    <i name="ewald">   3088.91719270 </i>
    <i name="hartreedc">  -5244.53645835 </i>
    <i name="XCdc">    195.01756129 </i>
    <i name="pawpsdc">   2104.90519057 </i>
    <i name="pawaedc">  -2115.80374798 </i>
    <i name="eentropy">     -0.11486492 </i>
    <i name="bandstr">   -255.31467205 </i>
    <i name="atom">   2743.32276819 </i>
    <i name="e_fr_energy">    517.40210010 </i>
    <i name="e_wo_entrp">    517.51696502 </i>
    <i name="e_0_energy">    517.45953256 </i>
   </energy>
  </scstep>
  <scstep>
   <time name="dav">    0.78    0.78</time>
   <time name="total">    0.78    0.78</time>
   <dipole>
    <v name="dipole">      0.00000282       0.00000082      -0.00000082 </v>
    <i name="Tr[quadrupol]">     26.40803677 </i>
    <i name="Echarged">      0.00000000 </i>
    <i name="Edipol_quadrupol">      0.00000000 </i>
    <i name="Eion">      0.00000000 </i>
   </dipole>
   <energy>
    <i name="e_fr_energy">    227.92342553 </i>
    <i name="e_wo_entrp">    227.93768079 </i>
    <i name="e_0_energy">    227.93055316 </i>
   </energy>
  </scstep>
  <scstep>
   <time name="dav">    0.72    0.72</time>
   <time name="total">    0.72    0.72</time>
   <dipole>
    <v name="dipole">      0.00000282       0.00000082      -0.00000082 </v>
    <i name="Tr[quadrupol]">     26.40803677 </i>
    <i name="Echarged">      0.00000000 </i>
    <i name="Edipol_quadrupol">      0.00000000 </i>
    <i name="Eion">      0.00000000 </i>
   </dipole>
   <energy>
    <i name="e_fr_energy">    -39.86969764 </i>
    <i name="e_wo_entrp">    -39.86969764 </i>
    <i name="e_0_energy">    -39.86969764 </i>
   </energy>
  </scstep>
  <scstep>
   <time name="dav">    0.55    0.55</time>
   <time name="total">    0.55    0.55</time>
   <dipole>
    <v name="dipole">      0.00000282       0.00000082      -0.00000082 </v>
    <i name="Tr[quadrupol]">     26.40803677 </i>
    <i name="Echarged">      0.00000000 </i>
    <i name="Edipol_quadrupol">      0.00000000 </i>
    <i name="Eion">      0.00000000 </i>
   </dipole>
   <energy>
    <i name="e_fr_energy">    -95.57707796 </i>
    <i name="e_wo_entrp">    -95.57707796 </i>
    <i name="e_0_energy">    -95.57707796 </i>
   </energy>
  </scstep>
  <scstep>
   <time name="dav">    0.57    0.57</time>
   <time name="total">    0.60    0.61</time>
   <dipole>
    <v name="dipole">      0.00000282       0.00000082      -0.00000082 </v>
    <i name="Tr[quadrupol]">     26.40803677 </i>
    <i name="Echarged">      0.00000000 </i>
    <i name="Edipol_quadrupol">      0.00000000 </i>
    <i name="Eion">      0.00000000 </i>
   </dipole>
   <energy>
    <i name="e_fr_energy">    -96.70274653 </i>
    <i name="e_wo_entrp">    -96.70274653 </i>
    <i name="e_0_energy">    -96.70274653 </i>
   </energy>
  </scstep>
  <scstep>
   <time name="diag">    0.10    0.10</time>
   <time name="diis">    0.59    0.59</time>
   <time name="orth">    0.02    0.02</time>
   <time name="total">    0.84    0.84</time>
   <dipole>
    <v name="dipole">      0.07026303       0.04615563      -0.03619912 </v>
    <i name="Tr[quadrupol]">     24.79855507 </i>
    <i name="Echarged">      0.00000000 </i>
    <i name="Edipol_quadrupol">      0.00000000 </i>
    <i name="Eion">      0.00000000 </i>
   </dipole>
   <energy>
    <i name="e_fr_energy">    -87.55219058 </i>
    <i name="e_wo_entrp">    -87.55219058 </i>
    <i name="e_0_energy">    -87.55219058 </i>
   </energy>
  </scstep>
  <scstep>
   <time name="diag">    0.11    0.11</time>
   <time name="diis">    0.61    0.61</time>
   <time name="orth">    0.01    0.01</time>
   <time name="total">    0.87    0.87</time>
   <dipole>
    <v name="dipole">      0.11931868       0.07452130      -0.05344465 </v>
    <i name="Tr[quadrupol]">     23.78237416 </i>
    <i name="Echarged">      0.00000000 </i>
    <i name="Edipol_quadrupol">      0.00000000 </i>
    <i name="Eion">      0.00000000 </i>
   </dipole>
   <energy>
    <i name="e_fr_energy">    -87.17596396 </i>
    <i name="e_wo_entrp">    -87.17596396 </i>
    <i name="e_0_energy">    -87.17596396 </i>
   </energy>
  </scstep>
  <scstep>
   <time name="diag">    0.09    0.09</time>
   <time name="diis">    0.60    0.60</time>
   <time name="orth">    0.01    0.01</time>
   <time name="total">    0.84    0.84</time>
   <dipole>
    <v name="dipole">      0.20760272       0.12267955      -0.08110458 </v>
    <i name="Tr[quadrupol]">     22.00180691 </i>
    <i name="Echarged">      0.00000000 </i>
    <i name="Edipol_quadrupol">      0.00000000 </i>
    <i name="Eion">      0.00000000 </i>
   </dipole>
   <energy>
    <i name="e_fr_energy">    -86.92609700 </i>
    <i name="e_wo_entrp">    -86.92609700 </i>
    <i name="e_0_energy">    -86.92609700 </i>
   </energy>
  </scstep>
  <scstep>
   <time name="diag">    0.10    0.10</time>
   <time name="diis">    0.59    0.59</time>
   <time name="orth">    0.01    0.01</time>
   <time name="total">    0.83    0.83</time>
   <dipole>
    <v name="dipole">      0.24214055       0.14162078      -0.09224865 </v>
    <i name="Tr[quadrupol]">     21.26522492 </i>
    <i name="Echarged">      0.00000000 </i>
    <i name="Edipol_quadrupol">      0.00000000 </i>
    <i name="Eion">      0.00000000 </i>
   </dipole>
   <energy>
    <i name="e_fr_energy">    -86.89300103 </i>
    <i name="e_wo_entrp">    -86.89300103 </i>
    <i name="e_0_energy">    -86.89300103 </i>
   </energy>
  </scstep>
  <scstep>
   <time name="diag">    0.09    0.09</time>
   <time name="diis">    0.55    0.55</time>
   <time name="orth">    0.01    0.01</time>
   <time name="total">    0.80    0.80</time>
   <dipole>
    <v name="dipole">      0.29304588       0.16869385      -0.10592400 </v>
    <i name="Tr[quadrupol]">     20.14885000 </i>
    <i name="Echarged">      0.00000000 </i>
    <i name="Edipol_quadrupol">      0.00000000 </i>
    <i name="Eion">      0.00000000 </i>
   </dipole>
   <energy>
    <i name="e_fr_energy">    -86.88936240 </i>
    <i name="e_wo_entrp">    -86.88936240 </i>
    <i name="e_0_energy">    -86.88936240 </i>
   </energy>
  </scstep>
  <scstep>
   <time name="diag">    0.09    0.09</time>
   <time name="diis">    0.56    0.56</time>
   <time name="orth">    0.01    0.01</time>
   <time name="total">    0.81    0.81</time>
   <dipole>
    <v name="dipole">      0.32315837       0.18475548      -0.11417478 </v>
    <i name="Tr[quadrupol]">     19.42947636 </i>
    <i name="Echarged">      0.00000000 </i>
    <i name="Edipol_quadrupol">      0.00000000 </i>
    <i name="Eion">      0.00000000 </i>
   </dipole>
   <energy>
    <i name="e_fr_energy">    -86.89046225 </i>
    <i name="e_wo_entrp">    -86.89046225 </i>
    <i name="e_0_energy">    -86.89046225 </i>
   </energy>
  </scstep>
  <scstep>
   <time name="diag">    0.09    0.09</time>
   <time name="diis">    0.53    0.53</time>
   <time name="orth">    0.01    0.01</time>
   <time name="total">    0.78    0.78</time>
   <dipole>
    <v name="dipole">      0.35866477       0.20401353      -0.12413227 </v>
    <i name="Tr[quadrupol]">     18.39963926 </i>
    <i name="Echarged">      0.00000000 </i>
    <i name="Edipol_quadrupol">      0.00000000 </i>
    <i name="Eion">      0.00000000 </i>
   </dipole>
   <energy>
    <i name="e_fr_energy">    -86.90451451 </i>
    <i name="e_wo_entrp">    -86.90451451 </i>
    <i name="e_0_energy">    -86.90451451 </i>
   </energy>
  </scstep>
  <scstep>
   <time name="diag">    0.09    0.09</time>
   <time name="diis">    0.56    0.56</time>
   <time name="orth">    0.01    0.01</time>
   <time name="total">    0.80    0.80</time>
   <dipole>
    <v name="dipole">      0.36731226       0.20870031      -0.12619430 </v>
    <i name="Tr[quadrupol]">     18.03680213 </i>
    <i name="Echarged">      0.00000000 </i>
    <i name="Edipol_quadrupol">      0.00000000 </i>
    <i name="Eion">      0.00000000 </i>
   </dipole>
   <energy>
    <i name="e_fr_energy">    -86.91161907 </i>
    <i name="e_wo_entrp">    -86.91161907 </i>
    <i name="e_0_energy">    -86.91161907 </i>
   </energy>
  </scstep>
  <scstep>
   <time name="diag">    0.10    0.10</time>
   <time name="diis">    0.54    0.54</time>
   <time name="orth">    0.01    0.01</time>
   <time name="total">    0.79    0.79</time>
   <dipole>
    <v name="dipole">      0.37233527       0.21142670      -0.12738119 </v>
    <i name="Tr[quadrupol]">     17.76997661 </i>
    <i name="Echarged">      0.00000000 </i>
    <i name="Edipol_quadrupol">      0.00000000 </i>
    <i name="Eion">      0.00000000 </i>
   </dipole>
   <energy>
    <i name="e_fr_energy">    -86.91675676 </i>
    <i name="e_wo_entrp">    -86.91675676 </i>
    <i name="e_0_energy">    -86.91675676 </i>
   </energy>
  </scstep>
  <scstep>
   <time name="diag">    0.09    0.09</time>
   <time name="diis">    0.51    0.51</time>
   <time name="orth">    0.01    0.01</time>
   <time name="total">    0.76    0.76</time>
   <dipole>
    <v name="dipole">      0.37549422       0.21312627      -0.12826368 </v>
    <i name="Tr[quadrupol]">     17.58988224 </i>
    <i name="Echarged">      0.00000000 </i>
    <i name="Edipol_quadrupol">      0.00000000 </i>
    <i name="Eion">      0.00000000 </i>
   </dipole>
   <energy>
    <i name="e_fr_energy">    -86.91963935 </i>
    <i name="e_wo_entrp">    -86.91963935 </i>
    <i name="e_0_energy">    -86.91963935 </i>
   </energy>
  </scstep>
  <scstep>
   <time name="diag">    0.09    0.09</time>
   <time name="diis">    0.54    0.54</time>
   <time name="orth">    0.01    0.01</time>
   <time name="total">    0.78    0.78</time>
   <dipole>
    <v name="dipole">      0.37782943       0.21429029      -0.12889771 </v>
    <i name="Tr[quadrupol]">     17.45997365 </i>
    <i name="Echarged">      0.00000000 </i>
    <i name="Edipol_quadrupol">      0.00000000 </i>
    <i name="Eion">      0.00000000 </i>
   </dipole>
   <energy>
    <i name="e_fr_energy">    -86.92132888 </i>
    <i name="e_wo_entrp">    -86.92132888 </i>
    <i name="e_0_energy">    -86.92132888 </i>
   </energy>
  </scstep>
  <scstep>
   <time name="diag">    0.09    0.09</time>
   <time name="diis">    0.56    0.56</time>
   <time name="orth">    0.01    0.01</time>
   <time name="total">    0.81    0.81</time>
   <dipole>
    <v name="dipole">      0.37942796       0.21514238      -0.12938300 </v>
    <i name="Tr[quadrupol]">     17.40725183 </i>
    <i name="Echarged">      0.00000000 </i>
    <i name="Edipol_quadrupol">      0.00000000 </i>
    <i name="Eion">      0.00000000 </i>
   </dipole>
   <energy>
    <i name="e_fr_energy">    -86.92177738 </i>
    <i name="e_wo_entrp">    -86.92177738 </i>
    <i name="e_0_energy">    -86.92177738 </i>
   </energy>
  </scstep>
  <scstep>
   <time name="diag">    0.09    0.09</time>
   <time name="diis">    0.53    0.55</time>
   <time name="orth">    0.01    0.01</time>
   <time name="total">    0.78    0.80</time>
   <dipole>
    <v name="dipole">      0.38091933       0.21597428      -0.12983315 </v>
    <i name="Tr[quadrupol]">     17.37476799 </i>
    <i name="Echarged">      0.00000000 </i>
    <i name="Edipol_quadrupol">      0.00000000 </i>
    <i name="Eion">      0.00000000 </i>
   </dipole>
   <energy>
    <i name="e_fr_energy">    -86.92206063 </i>
    <i name="e_wo_entrp">    -86.92206063 </i>
    <i name="e_0_energy">    -86.92206063 </i>
   </energy>
  </scstep>
  <scstep>
   <time name="diag">    0.09    0.11</time>
   <time name="diis">    0.55    0.55</time>
   <time name="orth">    0.01    0.01</time>
   <time name="total">    0.80    0.81</time>
   <dipole>
    <v name="dipole">      0.38229504       0.21678264      -0.13027450 </v>
    <i name="Tr[quadrupol]">     17.35176058 </i>
    <i name="Echarged">      0.00000000 </i>
    <i name="Edipol_quadrupol">      0.00000000 </i>
    <i name="Eion">      0.00000000 </i>
   </dipole>
   <energy>
    <i name="e_fr_energy">    -86.92222157 </i>
    <i name="e_wo_entrp">    -86.92222157 </i>
    <i name="e_0_energy">    -86.92222157 </i>
   </energy>
  </scstep>
  <scstep>
   <time name="diag">    0.09    0.09</time>
   <time name="diis">    0.43    0.44</time>
   <time name="orth">    0.01    0.01</time>
   <time name="total">    0.69    0.70</time>
   <dipole>
    <v name="dipole">      0.38302922       0.21725428      -0.13052942 </v>
    <i name="Tr[quadrupol]">     17.34161699 </i>
    <i name="Echarged">      0.00000000 </i>
    <i name="Edipol_quadrupol">      0.00000000 </i>
    <i name="Eion">      0.00000000 </i>
   </dipole>
   <energy>
    <i name="e_fr_energy">    -86.92227822 </i>
    <i name="e_wo_entrp">    -86.92227822 </i>
    <i name="e_0_energy">    -86.92227822 </i>
   </energy>
  </scstep>
  <scstep>
   <time name="diag">    0.09    0.09</time>
   <time name="diis">    0.42    0.42</time>
   <time name="orth">    0.01    0.01</time>
   <time name="total">    0.68    0.68</time>
   <dipole>
    <v name="dipole">      0.38394093       0.21789548      -0.13087103 </v>
    <i name="Tr[quadrupol]">     17.33255874 </i>
    <i name="Echarged">      0.00000000 </i>
    <i name="Edipol_quadrupol">      0.00000000 </i>
    <i name="Eion">      0.00000000 </i>
   </dipole>
   <energy>
    <i name="e_fr_energy">    -86.92232244 </i>
    <i name="e_wo_entrp">    -86.92232244 </i>
    <i name="e_0_energy">    -86.92232244 </i>
   </energy>
  </scstep>
  <scstep>
   <time name="diag">    0.09    0.09</time>
   <time name="diis">    0.43    0.43</time>
   <time name="orth">    0.01    0.01</time>
   <time name="total">    0.68    0.68</time>
   <dipole>
    <v name="dipole">      0.38419507       0.21809766      -0.13097708 </v>
    <i name="Tr[quadrupol]">     17.33056294 </i>
    <i name="Echarged">      0.00000000 </i>
    <i name="Edipol_quadrupol">      0.00000000 </i>
    <i name="Eion">      0.00000000 </i>
   </dipole>
   <energy>
    <i name="e_fr_energy">    -86.92233103 </i>
    <i name="e_wo_entrp">    -86.92233103 </i>
    <i name="e_0_energy">    -86.92233103 </i>
   </energy>
  </scstep>
  <scstep>
   <time name="diag">    0.09    0.09</time>
   <time name="diis">    0.38    0.38</time>
   <time name="orth">    0.01    0.01</time>
   <time name="total">    0.64    0.64</time>
   <dipole>
    <v name="dipole">      0.38440515       0.21827890      -0.13107097 </v>
    <i name="Tr[quadrupol]">     17.32900084 </i>
    <i name="Echarged">      0.00000000 </i>
    <i name="Edipol_quadrupol">      0.00000000 </i>
    <i name="Eion">      0.00000000 </i>
   </dipole>
   <energy>
    <i name="e_fr_energy">    -86.92233671 </i>
    <i name="e_wo_entrp">    -86.92233671 </i>
    <i name="e_0_energy">    -86.92233671 </i>
   </energy>
  </scstep>
  <scstep>
   <time name="diag">    0.09    0.09</time>
   <time name="diis">    0.36    0.37</time>
   <time name="orth">    0.01    0.01</time>
   <time name="total">    0.62    0.62</time>
   <dipole>
    <v name="dipole">      0.38453423       0.21840276      -0.13113368 </v>
    <i name="Tr[quadrupol]">     17.32796876 </i>
    <i name="Echarged">      0.00000000 </i>
    <i name="Edipol_quadrupol">      0.00000000 </i>
    <i name="Eion">      0.00000000 </i>
   </dipole>
   <energy>
    <i name="e_fr_energy">    -86.92233963 </i>
    <i name="e_wo_entrp">    -86.92233963 </i>
    <i name="e_0_energy">    -86.92233963 </i>
   </energy>
  </scstep>
  <scstep>
   <time name="diag">    0.09    0.09</time>
   <time name="diis">    0.40    0.40</time>
   <time name="orth">    0.01    0.01</time>
   <time name="total">    0.65    0.65</time>
   <dipole>
    <v name="dipole">      0.38456896       0.21844308      -0.13115398 </v>
    <i name="Tr[quadrupol]">     17.32762015 </i>
    <i name="Echarged">      0.00000000 </i>
    <i name="Edipol_quadrupol">      0.00000000 </i>
    <i name="Eion">      0.00000000 </i>
   </dipole>
   <energy>
    <i name="e_fr_energy">    -86.92234074 </i>
    <i name="e_wo_entrp">    -86.92234074 </i>
    <i name="e_0_energy">    -86.92234074 </i>
   </energy>
  </scstep>
  <scstep>
   <time name="diag">    0.10    0.10</time>
   <time name="diis">    0.34    0.35</time>
   <time name="orth">    0.01    0.01</time>
   <time name="total">    0.60    0.61</time>
   <dipole>
    <v name="dipole">      0.38460808       0.21849180      -0.13117867 </v>
    <i name="Tr[quadrupol]">     17.32722045 </i>
    <i name="Echarged">      0.00000000 </i>
    <i name="Edipol_quadrupol">      0.00000000 </i>
    <i name="Eion">      0.00000000 </i>
   </dipole>
   <energy>
    <i name="e_fr_energy">    -86.92234229 </i>
    <i name="e_wo_entrp">    -86.92234229 </i>
    <i name="e_0_energy">    -86.92234229 </i>
   </energy>
  </scstep>
  <scstep>
   <time name="diag">    0.09    0.09</time>
   <time name="diis">    0.38    0.38</time>
   <time name="orth">    0.01    0.01</time>
   <time name="total">    0.59    0.60</time>
   <dipole>
    <v name="dipole">      0.38463341       0.21852274      -0.13119437 </v>
    <i name="Tr[quadrupol]">     17.32698424 </i>
    <i name="Echarged">      0.00000000 </i>
    <i name="Edipol_quadrupol">      0.00000000 </i>
    <i name="Eion">      0.00000000 </i>
   </dipole>
   <energy>
    <i name="alphaZ">      1.01120712 </i>
    <i name="ewald">   3088.91719270 </i>
    <i name="hartreedc">  -5456.83462826 </i>
    <i name="XCdc">    205.14226113 </i>
    <i name="pawpsdc">   3375.21545674 </i>
    <i name="pawaedc">  -3387.78663196 </i>
    <i name="eentropy">     -0.00000000 </i>
    <i name="bandstr">   -655.90996875 </i>
    <i name="atom">   2743.32276819 </i>
    <i name="e_fr_energy">    -86.92234310 </i>
    <i name="e_wo_entrp">    -86.92234310 </i>
    <i name="e_0_energy">    -86.92234310 </i>
   </energy>
  </scstep>
  <structure>
   <crystal>
    <varray name="basis" >
     <v>      20.00000118       0.00000000       0.00000000 </v>
     <v>       0.00000000      20.00000118       0.00000000 </v>
     <v>       0.00000000       0.00000000      20.00000118 </v>
    </varray>
    <i name="volume">   8000.00141508 </i>
    <varray name="rec_basis" >
     <v>       0.05000000      -0.00000000      -0.00000000 </v>
     <v>       0.00000000       0.05000000      -0.00000000 </v>
     <v>       0.00000000       0.00000000       0.05000000 </v>
    </varray>
   </crystal>
   <varray name="positions" >
    <v>       0.51696044       0.48231771       0.42450384 </v>
    <v>       0.58250409       0.51749296       0.44267829 </v>
    <v>       0.50958844       0.51448731       0.57599144 </v>
    <v>       0.50881759       0.44253796       0.55194014 </v>
    <v>       0.61067104       0.48867021       0.54297044 </v>
    <v>       0.68202664       0.47599011       0.51539879 </v>
    <v>       0.41832169       0.43807436       0.47809879 </v>
    <v>       0.44818364       0.37077486       0.45331244 </v>
    <v>       0.32000000       0.49750456       0.53770659 </v>
    <v>       0.39097829       0.53815556       0.50631739 </v>
    <v>       0.49542619       0.56961846       0.47781379 </v>
    <v>       0.47029514       0.63315261       0.51581875 </v>
    <v>       0.53931234       0.52526726       0.42129739 </v>
    <v>       0.53148534       0.47185586       0.58328284 </v>
    <v>       0.64368714       0.50445581       0.51036774 </v>
    <v>       0.46046439       0.41406651       0.47018254 </v>
    <v>       0.36007474       0.50112251       0.49787849 </v>
    <v>       0.46704339       0.58519926       0.51557024 </v>
   </varray>
  </structure>
  <varray name="forces" >
   <v>      -0.35571079      -0.52909625       0.02146281 </v>
   <v>       0.61941360      -0.03615143       0.29931002 </v>
   <v>      -0.24138232       0.58359233      -0.04388939 </v>
   <v>      -0.25433648      -0.43789679      -0.38937498 </v>
   <v>      -0.55472113      -0.16882071       0.45125701 </v>
   <v>       0.47180628      -0.30062501      -0.01611801 </v>
   <v>      -0.58777883       0.38978042       0.19004887 </v>
   <v>      -0.06095139      -0.50343559      -0.18995841 </v>
   <v>       3.62506328       0.63658999      -3.15801977 </v>
   <v>       0.15017868       0.67897545       0.61606137 </v>
   <v>       0.40231316      -0.31255387      -0.54702923 </v>
   <v>      -0.02695326       0.53634352       0.06526936 </v>
   <v>      -0.23555001       0.57272096      -0.32903177 </v>
   <v>       0.53166392      -0.15427046       0.45307920 </v>
   <v>       0.04245830       0.45542887      -0.44891207 </v>
   <v>       0.61241031       0.15333719       0.05561429 </v>
   <v>      -3.73460556      -1.27104225       2.51277590 </v>
   <v>      -0.40331777      -0.29287638       0.45745479 </v>
  </varray>
  <varray name="stress" >
   <v>      -1.02172408      -0.08733373       0.51989235 </v>
   <v>      -0.08733373      -0.30151026       0.21967797 </v>
   <v>       0.51989235       0.21967797      -1.19893494 </v>
  </varray>
  <energy>
   <i name="e_fr_energy">    -86.92234310 </i>
   <i name="e_wo_entrp">    -86.92234310 </i>
   <i name="e_0_energy">     -0.00000000 </i>
  </energy>
  <time name="totalsc">   20.45   20.87</time>
 </calculation>
 <calculation>
  <scstep>
   <time name="dav">    0.57    0.57</time>
   <time name="total">    0.72    0.72</time>
   <dipole>
    <v name="dipole">      1.54559045       0.41404086      -1.11512331 </v>
    <i name="Tr[quadrupol]">      7.99583181 </i>
    <i name="Echarged">      0.00000000 </i>
    <i name="Edipol_quadrupol">      0.00000000 </i>
    <i name="Eion">      0.00000000 </i>
   </dipole>
   <energy>
    <i name="alphaZ">      1.02865649 </i>
    <i name="ewald">   3055.54495373 </i>
    <i name="hartreedc">  -5456.83421346 </i>
    <i name="XCdc">    205.14884423 </i>
    <i name="pawpsdc">   3375.21464407 </i>
    <i name="pawaedc">  -3387.78581442 </i>
    <i name="eentropy">     -0.00000000 </i>
    <i name="bandstr">   -658.47060513 </i>
    <i name="atom">   2743.32276819 </i>
    <i name="e_fr_energy">   -122.83076630 </i>
    <i name="e_wo_entrp">   -122.83076630 </i>
    <i name="e_0_energy">   -122.83076630 </i>
   </energy>
  </scstep>
  <scstep>
   <time name="diag">    0.09    0.09</time>
   <time name="diis">    0.67    0.67</time>
   <time name="orth">    0.01    0.01</time>
   <time name="total">    0.92    0.92</time>
   <dipole>
    <v name="dipole">      0.81130617       0.12840158      -0.63151126 </v>
    <i name="Tr[quadrupol]">     13.05368460 </i>
    <i name="Echarged">      0.00000000 </i>
    <i name="Edipol_quadrupol">      0.00000000 </i>
    <i name="Eion">      0.00000000 </i>
   </dipole>
   <energy>
    <i name="e_fr_energy">    -84.43874512 </i>
    <i name="e_wo_entrp">    -84.43874512 </i>
    <i name="e_0_energy">    -84.43874512 </i>
   </energy>
  </scstep>
  <scstep>
   <time name="diag">    0.09    0.09</time>
   <time name="diis">    0.58    0.59</time>
   <time name="orth">    0.01    0.01</time>
   <time name="total">    0.83    0.84</time>
   <dipole>
    <v name="dipole">      0.70460223       0.09945413      -0.44227296 </v>
    <i name="Tr[quadrupol]">     14.30713947 </i>
    <i name="Echarged">      0.00000000 </i>
    <i name="Edipol_quadrupol">      0.00000000 </i>
    <i name="Eion">      0.00000000 </i>
   </dipole>
   <energy>
    <i name="e_fr_energy">    -57.55713294 </i>
    <i name="e_wo_entrp">    -57.55713294 </i>
    <i name="e_0_energy">    -57.55713294 </i>
   </energy>
  </scstep>
  <scstep>
   <time name="diag">    0.09    0.09</time>
   <time name="diis">    0.60    0.60</time>
   <time name="orth">    0.01    0.01</time>
   <time name="total">    0.84    0.85</time>
   <dipole>
    <v name="dipole">      0.63632754       0.10371812      -0.33813030 </v>
    <i name="Tr[quadrupol]">     15.10505529 </i>
    <i name="Echarged">      0.00000000 </i>
    <i name="Edipol_quadrupol">      0.00000000 </i>
    <i name="Eion">      0.00000000 </i>
   </dipole>
   <energy>
    <i name="e_fr_energy">    -55.98104721 </i>
    <i name="e_wo_entrp">    -55.98104721 </i>
    <i name="e_0_energy">    -55.98104721 </i>
   </energy>
  </scstep>
  <scstep>
   <time name="diag">    0.09    0.09</time>
   <time name="diis">    0.59    0.60</time>
   <time name="orth">    0.01    0.01</time>
   <time name="total">    0.84    0.84</time>
   <dipole>
    <v name="dipole">      0.57209917       0.13373071      -0.25653829 </v>
    <i name="Tr[quadrupol]">     15.77720246 </i>
    <i name="Echarged">      0.00000000 </i>
    <i name="Edipol_quadrupol">      0.00000000 </i>
    <i name="Eion">      0.00000000 </i>
   </dipole>
   <energy>
    <i name="e_fr_energy">    -55.72324741 </i>
    <i name="e_wo_entrp">    -55.72324741 </i>
    <i name="e_0_energy">    -55.72324741 </i>
   </energy>
  </scstep>
  <scstep>
   <time name="diag">    0.09    0.09</time>
   <time name="diis">    0.60    0.60</time>
   <time name="orth">    0.01    0.01</time>
   <time name="total">    0.85    0.85</time>
   <dipole>
    <v name="dipole">      0.52954339       0.13314559      -0.22143170 </v>
    <i name="Tr[quadrupol]">     16.05248918 </i>
    <i name="Echarged">      0.00000000 </i>
    <i name="Edipol_quadrupol">      0.00000000 </i>
    <i name="Eion">      0.00000000 </i>
   </dipole>
   <energy>
    <i name="e_fr_energy">    -55.55258828 </i>
    <i name="e_wo_entrp">    -55.55258828 </i>
    <i name="e_0_energy">    -55.55258828 </i>
   </energy>
  </scstep>
  <scstep>
   <time name="diag">    0.09    0.09</time>
   <time name="diis">    0.60    0.60</time>
   <time name="orth">    0.01    0.01</time>
   <time name="total">    0.84    0.85</time>
   <dipole>
    <v name="dipole">      0.44614331       0.13632599      -0.16912011 </v>
    <i name="Tr[quadrupol]">     16.55305493 </i>
    <i name="Echarged">      0.00000000 </i>
    <i name="Edipol_quadrupol">      0.00000000 </i>
    <i name="Eion">      0.00000000 </i>
   </dipole>
   <energy>
    <i name="e_fr_energy">    -55.56402448 </i>
    <i name="e_wo_entrp">    -55.56402448 </i>
    <i name="e_0_energy">    -55.56402448 </i>
   </energy>
  </scstep>
  <scstep>
   <time name="diag">    0.09    0.09</time>
   <time name="diis">    0.60    0.60</time>
   <time name="orth">    0.01    0.01</time>
   <time name="total">    0.84    0.84</time>
   <dipole>
    <v name="dipole">      0.39607766       0.14146707      -0.13857899 </v>
    <i name="Tr[quadrupol]">     16.89163762 </i>
    <i name="Echarged">      0.00000000 </i>
    <i name="Edipol_quadrupol">      0.00000000 </i>
    <i name="Eion">      0.00000000 </i>
   </dipole>
   <energy>
    <i name="e_fr_energy">    -55.55170455 </i>
    <i name="e_wo_entrp">    -55.55170455 </i>
    <i name="e_0_energy">    -55.55170455 </i>
   </energy>
  </scstep>
  <scstep>
   <time name="diag">    0.09    0.09</time>
   <time name="diis">    0.60    0.60</time>
   <time name="orth">    0.01    0.01</time>
   <time name="total">    0.84    0.85</time>
   <dipole>
    <v name="dipole">      0.30881982       0.14455263      -0.10088861 </v>
    <i name="Tr[quadrupol]">     17.42435670 </i>
    <i name="Echarged">      0.00000000 </i>
    <i name="Edipol_quadrupol">      0.00000000 </i>
    <i name="Eion">      0.00000000 </i>
   </dipole>
   <energy>
    <i name="e_fr_energy">    -55.55509181 </i>
    <i name="e_wo_entrp">    -55.55509181 </i>
    <i name="e_0_energy">    -55.55509181 </i>
   </energy>
  </scstep>
  <scstep>
   <time name="diag">    0.09    0.09</time>
   <time name="diis">    0.56    0.56</time>
   <time name="orth">    0.01    0.01</time>
   <time name="total">    0.81    0.81</time>
   <dipole>
    <v name="dipole">      0.22474975       0.14446819      -0.07080645 </v>
    <i name="Tr[quadrupol]">     17.89146186 </i>
    <i name="Echarged">      0.00000000 </i>
    <i name="Edipol_quadrupol">      0.00000000 </i>
    <i name="Eion">      0.00000000 </i>
   </dipole>
   <energy>
    <i name="e_fr_energy">    -55.55520624 </i>
    <i name="e_wo_entrp">    -55.55520624 </i>
    <i name="e_0_energy">    -55.55520624 </i>
   </energy>
  </scstep>
  <scstep>
   <time name="diag">    0.09    0.09</time>
   <time name="diis">    0.57    0.57</time>
   <time name="orth">    0.01    0.01</time>
   <time name="total">    0.81    0.82</time>
   <dipole>
    <v name="dipole">      0.15234969       0.14396774      -0.05154661 </v>
    <i name="Tr[quadrupol]">     18.26877907 </i>
    <i name="Echarged">      0.00000000 </i>
    <i name="Edipol_quadrupol">      0.00000000 </i>
    <i name="Eion">      0.00000000 </i>
   </dipole>
   <energy>
    <i name="e_fr_energy">    -55.55742566 </i>
    <i name="e_wo_entrp">    -55.55742566 </i>
    <i name="e_0_energy">    -55.55742566 </i>
   </energy>
  </scstep>
  <scstep>
   <time name="diag">    0.09    0.09</time>
   <time name="diis">    0.62    0.62</time>
   <time name="orth">    0.01    0.01</time>
   <time name="total">    0.87    0.87</time>
   <dipole>
    <v name="dipole">      0.11470605       0.14304338      -0.04514695 </v>
    <i name="Tr[quadrupol]">     18.44384105 </i>
    <i name="Echarged">      0.00000000 </i>
    <i name="Edipol_quadrupol">      0.00000000 </i>
    <i name="Eion">      0.00000000 </i>
   </dipole>
   <energy>
    <i name="e_fr_energy">    -55.55891876 </i>
    <i name="e_wo_entrp">    -55.55891876 </i>
    <i name="e_0_energy">    -55.55891876 </i>
   </energy>
  </scstep>
  <scstep>
   <time name="diag">    0.10    0.10</time>
   <time name="diis">    0.59    0.59</time>
   <time name="orth">    0.01    0.01</time>
   <time name="total">    0.84    0.84</time>
   <dipole>
    <v name="dipole">      0.09197009       0.14221238      -0.04178170 </v>
    <i name="Tr[quadrupol]">     18.54635653 </i>
    <i name="Echarged">      0.00000000 </i>
    <i name="Edipol_quadrupol">      0.00000000 </i>
    <i name="Eion">      0.00000000 </i>
   </dipole>
   <energy>
    <i name="e_fr_energy">    -55.55980666 </i>
    <i name="e_wo_entrp">    -55.55980666 </i>
    <i name="e_0_energy">    -55.55980666 </i>
   </energy>
  </scstep>
  <scstep>
   <time name="diag">    0.09    0.09</time>
   <time name="diis">    0.54    0.54</time>
   <time name="orth">    0.01    0.01</time>
   <time name="total">    0.79    0.80</time>
   <dipole>
    <v name="dipole">      0.07298659       0.14125814      -0.03952758 </v>
    <i name="Tr[quadrupol]">     18.62710999 </i>
    <i name="Echarged">      0.00000000 </i>
    <i name="Edipol_quadrupol">      0.00000000 </i>
    <i name="Eion">      0.00000000 </i>
   </dipole>
   <energy>
    <i name="e_fr_energy">    -55.56106832 </i>
    <i name="e_wo_entrp">    -55.56106832 </i>
    <i name="e_0_energy">    -55.56106832 </i>
   </energy>
  </scstep>
  <scstep>
   <time name="diag">    0.09    0.09</time>
   <time name="diis">    0.54    0.54</time>
   <time name="orth">    0.01    0.01</time>
   <time name="total">    0.78    0.79</time>
   <dipole>
    <v name="dipole">      0.06339088       0.14093845      -0.03685833 </v>
    <i name="Tr[quadrupol]">     18.67403434 </i>
    <i name="Echarged">      0.00000000 </i>
    <i name="Edipol_quadrupol">      0.00000000 </i>
    <i name="Eion">      0.00000000 </i>
   </dipole>
   <energy>
    <i name="e_fr_energy">    -55.56147823 </i>
    <i name="e_wo_entrp">    -55.56147823 </i>
    <i name="e_0_energy">    -55.56147823 </i>
   </energy>
  </scstep>
  <scstep>
   <time name="diag">    0.10    0.10</time>
   <time name="diis">    0.53    0.53</time>
   <time name="orth">    0.01    0.01</time>
   <time name="total">    0.78    0.78</time>
   <dipole>
    <v name="dipole">      0.05857783       0.14059426      -0.03394147 </v>
    <i name="Tr[quadrupol]">     18.70084565 </i>
    <i name="Echarged">      0.00000000 </i>
    <i name="Edipol_quadrupol">      0.00000000 </i>
    <i name="Eion">      0.00000000 </i>
   </dipole>
   <energy>
    <i name="e_fr_energy">    -55.56175807 </i>
    <i name="e_wo_entrp">    -55.56175807 </i>
    <i name="e_0_energy">    -55.56175807 </i>
   </energy>
  </scstep>
  <scstep>
   <time name="diag">    0.09    0.09</time>
   <time name="diis">    0.54    0.54</time>
   <time name="orth">    0.01    0.01</time>
   <time name="total">    0.79    0.79</time>
   <dipole>
    <v name="dipole">      0.05694491       0.14050252      -0.03232907 </v>
    <i name="Tr[quadrupol]">     18.71230131 </i>
    <i name="Echarged">      0.00000000 </i>
    <i name="Edipol_quadrupol">      0.00000000 </i>
    <i name="Eion">      0.00000000 </i>
   </dipole>
   <energy>
    <i name="e_fr_energy">    -55.56185423 </i>
    <i name="e_wo_entrp">    -55.56185423 </i>
    <i name="e_0_energy">    -55.56185423 </i>
   </energy>
  </scstep>
  <scstep>
   <time name="diag">    0.10    0.10</time>
   <time name="diis">    0.45    0.45</time>
   <time name="orth">    0.01    0.01</time>
   <time name="total">    0.70    0.70</time>
   <dipole>
    <v name="dipole">      0.05637642       0.14045821      -0.03054626 </v>
    <i name="Tr[quadrupol]">     18.72039582 </i>
    <i name="Echarged">      0.00000000 </i>
    <i name="Edipol_quadrupol">      0.00000000 </i>
    <i name="Eion">      0.00000000 </i>
   </dipole>
   <energy>
    <i name="e_fr_energy">    -55.56194862 </i>
    <i name="e_wo_entrp">    -55.56194862 </i>
    <i name="e_0_energy">    -55.56194862 </i>
   </energy>
  </scstep>
  <scstep>
   <time name="diag">    0.09    0.09</time>
   <time name="diis">    0.48    0.48</time>
   <time name="orth">    0.01    0.01</time>
   <time name="total">    0.73    0.73</time>
   <dipole>
    <v name="dipole">      0.05653237       0.14045425      -0.02941538 </v>
    <i name="Tr[quadrupol]">     18.72401427 </i>
    <i name="Echarged">      0.00000000 </i>
    <i name="Edipol_quadrupol">      0.00000000 </i>
    <i name="Eion">      0.00000000 </i>
   </dipole>
   <energy>
    <i name="e_fr_energy">    -55.56199046 </i>
    <i name="e_wo_entrp">    -55.56199046 </i>
    <i name="e_0_energy">    -55.56199046 </i>
   </energy>
  </scstep>
  <scstep>
   <time name="diag">    0.09    0.09</time>
   <time name="diis">    0.39    0.39</time>
   <time name="orth">    0.01    0.01</time>
   <time name="total">    0.64    0.64</time>
   <dipole>
    <v name="dipole">      0.05676918       0.14043738      -0.02853898 </v>
    <i name="Tr[quadrupol]">     18.72658810 </i>
    <i name="Echarged">      0.00000000 </i>
    <i name="Edipol_quadrupol">      0.00000000 </i>
    <i name="Eion">      0.00000000 </i>
   </dipole>
   <energy>
    <i name="e_fr_energy">    -55.56201294 </i>
    <i name="e_wo_entrp">    -55.56201294 </i>
    <i name="e_0_energy">    -55.56201294 </i>
   </energy>
  </scstep>
  <scstep>
   <time name="diag">    0.09    0.09</time>
   <time name="diis">    0.41    0.42</time>
   <time name="orth">    0.01    0.01</time>
   <time name="total">    0.66    0.67</time>
   <dipole>
    <v name="dipole">      0.05698767       0.14041666      -0.02807173 </v>
    <i name="Tr[quadrupol]">     18.72784284 </i>
    <i name="Echarged">      0.00000000 </i>
    <i name="Edipol_quadrupol">      0.00000000 </i>
    <i name="Eion">      0.00000000 </i>
   </dipole>
   <energy>
    <i name="e_fr_energy">    -55.56202226 </i>
    <i name="e_wo_entrp">    -55.56202226 </i>
    <i name="e_0_energy">    -55.56202226 </i>
   </energy>
  </scstep>
  <scstep>
   <time name="diag">    0.09    0.09</time>
   <time name="diis">    0.39    0.39</time>
   <time name="orth">    0.01    0.01</time>
   <time name="total">    0.64    0.65</time>
   <dipole>
    <v name="dipole">      0.05717032       0.14039700      -0.02777006 </v>
    <i name="Tr[quadrupol]">     18.72869383 </i>
    <i name="Echarged">      0.00000000 </i>
    <i name="Edipol_quadrupol">      0.00000000 </i>
    <i name="Eion">      0.00000000 </i>
   </dipole>
   <energy>
    <i name="e_fr_energy">    -55.56202726 </i>
    <i name="e_wo_entrp">    -55.56202726 </i>
    <i name="e_0_energy">    -55.56202726 </i>
   </energy>
  </scstep>
  <scstep>
   <time name="diag">    0.10    0.10</time>
   <time name="diis">    0.41    0.41</time>
   <time name="orth">    0.01    0.01</time>
   <time name="total">    0.67    0.67</time>
   <dipole>
    <v name="dipole">      0.05727836       0.14038270      -0.02764800 </v>
    <i name="Tr[quadrupol]">     18.72910480 </i>
    <i name="Echarged">      0.00000000 </i>
    <i name="Edipol_quadrupol">      0.00000000 </i>
    <i name="Eion">      0.00000000 </i>
   </dipole>
   <energy>
    <i name="e_fr_energy">    -55.56202952 </i>
    <i name="e_wo_entrp">    -55.56202952 </i>
    <i name="e_0_energy">    -55.56202952 </i>
   </energy>
  </scstep>
  <scstep>
   <time name="diag">    0.09    0.09</time>
   <time name="diis">    0.37    0.37</time>
   <time name="orth">    0.01    0.01</time>
   <time name="total">    0.63    0.63</time>
   <dipole>
    <v name="dipole">      0.05733897       0.14037190      -0.02758399 </v>
    <i name="Tr[quadrupol]">     18.72938096 </i>
    <i name="Echarged">      0.00000000 </i>
    <i name="Edipol_quadrupol">      0.00000000 </i>
    <i name="Eion">      0.00000000 </i>
   </dipole>
   <energy>
    <i name="e_fr_energy">    -55.56203071 </i>
    <i name="e_wo_entrp">    -55.56203071 </i>
    <i name="e_0_energy">    -55.56203071 </i>
   </energy>
  </scstep>
  <scstep>
   <time name="diag">    0.09    0.09</time>
   <time name="diis">    0.38    0.38</time>
   <time name="orth">    0.01    0.01</time>
   <time name="total">    0.59    0.59</time>
   <dipole>
    <v name="dipole">      0.05736113       0.14036715      -0.02757132 </v>
    <i name="Tr[quadrupol]">     18.72948443 </i>
    <i name="Echarged">      0.00000000 </i>
    <i name="Edipol_quadrupol">      0.00000000 </i>
    <i name="Eion">      0.00000000 </i>
   </dipole>
   <energy>
    <i name="alphaZ">      1.01071647 </i>
    <i name="ewald">   3055.54495373 </i>
    <i name="hartreedc">  -5385.22474149 </i>
    <i name="XCdc">    205.26017908 </i>
    <i name="pawpsdc">   3474.68006538 </i>
    <i name="pawaedc">  -3487.79519521 </i>
    <i name="eentropy">     -0.00000000 </i>
    <i name="bandstr">   -662.36077753 </i>
    <i name="atom">   2743.32276819 </i>
    <i name="e_fr_energy">    -55.56203137 </i>
    <i name="e_wo_entrp">    -55.56203137 </i>
    <i name="e_0_energy">    -55.56203137 </i>
   </energy>
  </scstep>
  <structure>
   <crystal>
    <varray name="basis" >
     <v>      20.00000118       0.00000000       0.00000000 </v>
     <v>       0.00000000      20.00000118       0.00000000 </v>
     <v>       0.00000000       0.00000000      20.00000118 </v>
    </varray>
    <i name="volume">   8000.00141508 </i>
    <varray name="rec_basis" >
     <v>       0.05000000      -0.00000000      -0.00000000 </v>
     <v>       0.00000000       0.05000000      -0.00000000 </v>
     <v>       0.00000000       0.00000000       0.05000000 </v>
    </varray>
   </crystal>
   <varray name="positions" >
    <v>       0.51566464       0.48039029       0.42458202 </v>
    <v>       0.58476052       0.51736126       0.44376863 </v>
    <v>       0.50870912       0.51661325       0.57583155 </v>
    <v>       0.50789108       0.44094277       0.55052170 </v>
    <v>       0.60865027       0.48805522       0.54461430 </v>
    <v>       0.68374536       0.47489498       0.51534007 </v>
    <v>       0.41618050       0.43949427       0.47879111 </v>
    <v>       0.44796160       0.36894092       0.45262045 </v>
    <v>       0.33320555       0.49982356       0.52620240 </v>
    <v>       0.39152537       0.54062896       0.50856160 </v>
    <v>       0.49689175       0.56847987       0.47582104 </v>
    <v>       0.47019695       0.63510642       0.51605651 </v>
    <v>       0.53845427       0.52735359       0.42009877 </v>
    <v>       0.53342211       0.47129387       0.58493333 </v>
    <v>       0.64384181       0.50611487       0.50873242 </v>
    <v>       0.46269531       0.41462509       0.47038513 </v>
    <v>       0.34647014       0.49649229       0.50703214 </v>
    <v>       0.46557416       0.58413235       0.51723667 </v>
   </varray>
  </structure>
  <varray name="forces" >
   <v>       0.72466518       1.87965325      -0.17866721 </v>
   <v>      -1.51561967       0.46263077      -0.73241500 </v>
   <v>       1.10512226      -1.79023551       0.45174398 </v>
   <v>       1.10613782       1.08428305       1.37693235 </v>
   <v>       0.94833175       0.71630642      -1.25449288 </v>
   <v>      -1.51595112       1.24309943      -0.42195267 </v>
   <v>       1.68256863      -0.98623696      -0.16914790 </v>
   <v>       0.65950414       1.77440241       0.71668572 </v>
   <v>    -134.73240308      33.11659499     193.98981608 </v>
   <v>      -2.75050662      -2.79666293      -0.17936812 </v>
   <v>      -0.68183498      -0.07704700       0.76920909 </v>
   <v>      -0.43689854      -1.98367783       0.17429512 </v>
   <v>       0.70908284      -2.16121704       1.31501988 </v>
   <v>      -2.04277585       0.71861388      -1.96984610 </v>
   <v>       0.22605723      -1.94021282       1.63369811 </v>
   <v>      -2.71555362      -0.52716602      -0.34131004 </v>
   <v>     138.59288730     -29.93649098    -193.90120468 </v>
   <v>       0.63718632       1.20336289      -1.27899573 </v>
  </varray>
  <varray name="stress" >
   <v>       3.60589795      -2.26624686     -10.40912249 </v>
   <v>      -2.26624686      -3.21087338       2.41995927 </v>
   <v>     -10.40912249       2.41995927      13.07842348 </v>
  </varray>
  <energy>
   <i name="e_fr_energy">    -55.56203137 </i>
   <i name="e_wo_entrp">    -55.56203137 </i>
   <i name="e_0_energy">     -0.00000000 </i>
  </energy>
  <time name="totalsc">   19.93   20.14</time>
 </calculation>
 <calculation>
  <scstep>
   <time name="dav">    0.56    0.57</time>
   <time name="total">    0.71    0.71</time>
   <dipole>
    <v name="dipole">     -0.98747362      -0.03559712       0.85796826 </v>
    <i name="Tr[quadrupol]">     27.21045088 </i>
    <i name="Echarged">      0.00000000 </i>
    <i name="Edipol_quadrupol">      0.00000000 </i>
    <i name="Eion">      0.00000000 </i>
   </dipole>
   <energy>
    <i name="alphaZ">      0.99421377 </i>
    <i name="ewald">   3078.72522273 </i>
    <i name="hartreedc">  -5385.22448082 </i>
    <i name="XCdc">    205.26825054 </i>
    <i name="pawpsdc">   3474.67964611 </i>
    <i name="pawaedc">  -3487.79478146 </i>
    <i name="eentropy">     -0.00000000 </i>
    <i name="bandstr">   -789.27043205 </i>
    <i name="atom">   2743.32276819 </i>
    <i name="e_fr_energy">   -159.29959299 </i>
    <i name="e_wo_entrp">   -159.29959299 </i>
    <i name="e_0_energy">   -159.29959299 </i>
   </energy>
  </scstep>
  <scstep>
   <time name="diag">    0.09    0.09</time>
   <time name="diis">    0.60    0.60</time>
   <time name="orth">    0.01    0.01</time>
   <time name="total">    0.84    0.84</time>
   <dipole>
    <v name="dipole">     -0.57723327       0.07942448       0.48350027 </v>
    <i name="Tr[quadrupol]">     25.06398298 </i>
    <i name="Echarged">      0.00000000 </i>
    <i name="Edipol_quadrupol">      0.00000000 </i>
    <i name="Eion">      0.00000000 </i>
   </dipole>
   <energy>
    <i name="e_fr_energy">   -107.26523537 </i>
    <i name="e_wo_entrp">   -107.26523537 </i>
    <i name="e_0_energy">   -107.26523537 </i>
   </energy>
  </scstep>
  <scstep>
   <time name="diag">    0.09    0.09</time>
   <time name="diis">    0.60    0.60</time>
   <time name="orth">    0.01    0.01</time>
   <time name="total">    0.84    0.84</time>
   <dipole>
    <v name="dipole">     -0.48815911       0.10931376       0.29984162 </v>
    <i name="Tr[quadrupol]">     23.38188355 </i>
    <i name="Echarged">      0.00000000 </i>
    <i name="Edipol_quadrupol">      0.00000000 </i>
    <i name="Eion">      0.00000000 </i>
   </dipole>
   <energy>
    <i name="e_fr_energy">    -88.99155586 </i>
    <i name="e_wo_entrp">    -88.99155586 </i>
    <i name="e_0_energy">    -88.99155586 </i>
   </energy>
  </scstep>
  <scstep>
   <time name="diag">    0.10    0.10</time>
   <time name="diis">    0.60    0.60</time>
   <time name="orth">    0.01    0.01</time>
   <time name="total">    0.84    0.84</time>
   <dipole>
    <v name="dipole">     -0.37448236       0.13938317       0.16299122 </v>
    <i name="Tr[quadrupol]">     22.02639713 </i>
    <i name="Echarged">      0.00000000 </i>
    <i name="Edipol_quadrupol">      0.00000000 </i>
    <i name="Eion">      0.00000000 </i>
   </dipole>
   <energy>
    <i name="e_fr_energy">    -87.52451912 </i>
    <i name="e_wo_entrp">    -87.52451912 </i>
    <i name="e_0_energy">    -87.52451912 </i>
   </energy>
  </scstep>
  <scstep>
   <time name="diag">    0.09    0.09</time>
   <time name="diis">    0.59    0.60</time>
   <time name="orth">    0.01    0.01</time>
   <time name="total">    0.84    0.84</time>
   <dipole>
    <v name="dipole">     -0.27589497       0.15514426       0.11002551 </v>
    <i name="Tr[quadrupol]">     21.35885338 </i>
    <i name="Echarged">      0.00000000 </i>
    <i name="Edipol_quadrupol">      0.00000000 </i>
    <i name="Eion">      0.00000000 </i>
   </dipole>
   <energy>
    <i name="e_fr_energy">    -87.23910817 </i>
    <i name="e_wo_entrp">    -87.23910817 </i>
    <i name="e_0_energy">    -87.23910817 </i>
   </energy>
  </scstep>
  <scstep>
   <time name="diag">    0.10    0.10</time>
   <time name="diis">    0.61    0.61</time>
   <time name="orth">    0.01    0.01</time>
   <time name="total">    0.85    0.85</time>
   <dipole>
    <v name="dipole">     -0.19158146       0.16653906       0.05736114 </v>
    <i name="Tr[quadrupol]">     20.69660544 </i>
    <i name="Echarged">      0.00000000 </i>
    <i name="Edipol_quadrupol">      0.00000000 </i>
    <i name="Eion">      0.00000000 </i>
   </dipole>
   <energy>
    <i name="e_fr_energy">    -87.20464089 </i>
    <i name="e_wo_entrp">    -87.20464089 </i>
    <i name="e_0_energy">    -87.20464089 </i>
   </energy>
  </scstep>
  <scstep>
   <time name="diag">    0.09    0.09</time>
   <time name="diis">    0.60    0.60</time>
   <time name="orth">    0.01    0.01</time>
   <time name="total">    0.84    0.84</time>
   <dipole>
    <v name="dipole">     -0.09595194       0.17696820       0.00986313 </v>
    <i name="Tr[quadrupol]">     20.01739799 </i>
    <i name="Echarged">      0.00000000 </i>
    <i name="Edipol_quadrupol">      0.00000000 </i>
    <i name="Eion">      0.00000000 </i>
   </dipole>
   <energy>
    <i name="e_fr_energy">    -87.20137331 </i>
    <i name="e_wo_entrp">    -87.20137331 </i>
    <i name="e_0_energy">    -87.20137331 </i>
   </energy>
  </scstep>
  <scstep>
   <time name="diag">    0.09    0.09</time>
   <time name="diis">    0.59    0.59</time>
   <time name="orth">    0.01    0.01</time>
   <time name="total">    0.83    0.84</time>
   <dipole>
    <v name="dipole">     -0.00101619       0.18690636      -0.02475311 </v>
    <i name="Tr[quadrupol]">     19.42218448 </i>
    <i name="Echarged">      0.00000000 </i>
    <i name="Edipol_quadrupol">      0.00000000 </i>
    <i name="Eion">      0.00000000 </i>
   </dipole>
   <energy>
    <i name="e_fr_energy">    -87.20754149 </i>
    <i name="e_wo_entrp">    -87.20754149 </i>
    <i name="e_0_energy">    -87.20754149 </i>
   </energy>
  </scstep>
  <scstep>
   <time name="diag">    0.09    0.09</time>
   <time name="diis">    0.60    0.60</time>
   <time name="orth">    0.01    0.01</time>
   <time name="total">    0.85    0.85</time>
   <dipole>
    <v name="dipole">      0.13576462       0.19931992      -0.06929640 </v>
    <i name="Tr[quadrupol]">     18.59332863 </i>
    <i name="Echarged">      0.00000000 </i>
    <i name="Edipol_quadrupol">      0.00000000 </i>
    <i name="Eion">      0.00000000 </i>
   </dipole>
   <energy>
    <i name="e_fr_energy">    -87.21955587 </i>
    <i name="e_wo_entrp">    -87.21955587 </i>
    <i name="e_0_energy">    -87.21955587 </i>
   </energy>
  </scstep>
  <scstep>
   <time name="diag">    0.09    0.09</time>
   <time name="diis">    0.60    0.60</time>
   <time name="orth">    0.01    0.01</time>
   <time name="total">    0.85    0.85</time>
   <dipole>
    <v name="dipole">      0.20371755       0.20394462      -0.08778511 </v>
    <i name="Tr[quadrupol]">     18.21012826 </i>
    <i name="Echarged">      0.00000000 </i>
    <i name="Edipol_quadrupol">      0.00000000 </i>
    <i name="Eion">      0.00000000 </i>
   </dipole>
   <energy>
    <i name="e_fr_energy">    -87.22318520 </i>
    <i name="e_wo_entrp">    -87.22318520 </i>
    <i name="e_0_energy">    -87.22318520 </i>
   </energy>
  </scstep>
  <scstep>
   <time name="diag">    0.09    0.09</time>
   <time name="diis">    0.58    0.58</time>
   <time name="orth">    0.01    0.01</time>
   <time name="total">    0.82    0.82</time>
   <dipole>
    <v name="dipole">      0.28077691       0.20811321      -0.10067288 </v>
    <i name="Tr[quadrupol]">     17.83169374 </i>
    <i name="Echarged">      0.00000000 </i>
    <i name="Edipol_quadrupol">      0.00000000 </i>
    <i name="Eion">      0.00000000 </i>
   </dipole>
   <energy>
    <i name="e_fr_energy">    -87.22984338 </i>
    <i name="e_wo_entrp">    -87.22984338 </i>
    <i name="e_0_energy">    -87.22984338 </i>
   </energy>
  </scstep>
  <scstep>
   <time name="diag">    0.09    0.09</time>
   <time name="diis">    0.59    0.60</time>
   <time name="orth">    0.01    0.01</time>
   <time name="total">    0.84    0.84</time>
   <dipole>
    <v name="dipole">      0.30449323       0.20912680      -0.10292986 </v>
    <i name="Tr[quadrupol]">     17.73031061 </i>
    <i name="Echarged">      0.00000000 </i>
    <i name="Edipol_quadrupol">      0.00000000 </i>
    <i name="Eion">      0.00000000 </i>
   </dipole>
   <energy>
    <i name="e_fr_energy">    -87.23209470 </i>
    <i name="e_wo_entrp">    -87.23209470 </i>
    <i name="e_0_energy">    -87.23209470 </i>
   </energy>
  </scstep>
  <scstep>
   <time name="diag">    0.09    0.09</time>
   <time name="diis">    0.54    0.54</time>
   <time name="orth">    0.01    0.01</time>
   <time name="total">    0.80    0.80</time>
   <dipole>
    <v name="dipole">      0.32971209       0.21010528      -0.10605836 </v>
    <i name="Tr[quadrupol]">     17.62241376 </i>
    <i name="Echarged">      0.00000000 </i>
    <i name="Edipol_quadrupol">      0.00000000 </i>
    <i name="Eion">      0.00000000 </i>
   </dipole>
   <energy>
    <i name="e_fr_energy">    -87.23459846 </i>
    <i name="e_wo_entrp">    -87.23459846 </i>
    <i name="e_0_energy">    -87.23459846 </i>
   </energy>
  </scstep>
  <scstep>
   <time name="diag">    0.09    0.09</time>
   <time name="diis">    0.50    0.50</time>
   <time name="orth">    0.01    0.01</time>
   <time name="total">    0.75    0.75</time>
   <dipole>
    <v name="dipole">      0.34992070       0.21102791      -0.10921534 </v>
    <i name="Tr[quadrupol]">     17.53692900 </i>
    <i name="Echarged">      0.00000000 </i>
    <i name="Edipol_quadrupol">      0.00000000 </i>
    <i name="Eion">      0.00000000 </i>
   </dipole>
   <energy>
    <i name="e_fr_energy">    -87.23619471 </i>
    <i name="e_wo_entrp">    -87.23619471 </i>
    <i name="e_0_energy">    -87.23619471 </i>
   </energy>
  </scstep>
  <scstep>
   <time name="diag">    0.09    0.09</time>
   <time name="diis">    0.49    0.49</time>
   <time name="orth">    0.01    0.01</time>
   <time name="total">    0.74    0.74</time>
   <dipole>
    <v name="dipole">      0.35750481       0.21172723      -0.11219302 </v>
    <i name="Tr[quadrupol]">     17.50028321 </i>
    <i name="Echarged">      0.00000000 </i>
    <i name="Edipol_quadrupol">      0.00000000 </i>
    <i name="Eion">      0.00000000 </i>
   </dipole>
   <energy>
    <i name="e_fr_energy">    -87.23680386 </i>
    <i name="e_wo_entrp">    -87.23680386 </i>
    <i name="e_0_energy">    -87.23680386 </i>
   </energy>
  </scstep>
  <scstep>
   <time name="diag">    0.10    0.10</time>
   <time name="diis">    0.55    0.56</time>
   <time name="orth">    0.01    0.01</time>
   <time name="total">    0.80    0.81</time>
   <dipole>
    <v name="dipole">      0.36039232       0.21237682      -0.11528558 </v>
    <i name="Tr[quadrupol]">     17.47865327 </i>
    <i name="Echarged">      0.00000000 </i>
    <i name="Edipol_quadrupol">      0.00000000 </i>
    <i name="Eion">      0.00000000 </i>
   </dipole>
   <energy>
    <i name="e_fr_energy">    -87.23707134 </i>
    <i name="e_wo_entrp">    -87.23707134 </i>
    <i name="e_0_energy">    -87.23707134 </i>
   </energy>
  </scstep>
  <scstep>
   <time name="diag">    0.09    0.09</time>
   <time name="diis">    0.52    0.52</time>
   <time name="orth">    0.01    0.01</time>
   <time name="total">    0.76    0.77</time>
   <dipole>
    <v name="dipole">      0.36121929       0.21274943      -0.11696061 </v>
    <i name="Tr[quadrupol]">     17.47016215 </i>
    <i name="Echarged">      0.00000000 </i>
    <i name="Edipol_quadrupol">      0.00000000 </i>
    <i name="Eion">      0.00000000 </i>
   </dipole>
   <energy>
    <i name="e_fr_energy">    -87.23718274 </i>
    <i name="e_wo_entrp">    -87.23718274 </i>
    <i name="e_0_energy">    -87.23718274 </i>
   </energy>
  </scstep>
  <scstep>
   <time name="diag">    0.09    0.09</time>
   <time name="diis">    0.42    0.42</time>
   <time name="orth">    0.01    0.01</time>
   <time name="total">    0.67    0.67</time>
   <dipole>
    <v name="dipole">      0.36118714       0.21312721      -0.11859680 </v>
    <i name="Tr[quadrupol]">     17.46457840 </i>
    <i name="Echarged">      0.00000000 </i>
    <i name="Edipol_quadrupol">      0.00000000 </i>
    <i name="Eion">      0.00000000 </i>
   </dipole>
   <energy>
    <i name="e_fr_energy">    -87.23724866 </i>
    <i name="e_wo_entrp">    -87.23724866 </i>
    <i name="e_0_energy">    -87.23724866 </i>
   </energy>
  </scstep>
  <scstep>
   <time name="diag">    0.09    0.09</time>
   <time name="diis">    0.42    0.42</time>
   <time name="orth">    0.01    0.01</time>
   <time name="total">    0.67    0.68</time>
   <dipole>
    <v name="dipole">      0.36100945       0.21327604      -0.11920558 </v>
    <i name="Tr[quadrupol]">     17.46295191 </i>
    <i name="Echarged">      0.00000000 </i>
    <i name="Edipol_quadrupol">      0.00000000 </i>
    <i name="Eion">      0.00000000 </i>
   </dipole>
   <energy>
    <i name="e_fr_energy">    -87.23726429 </i>
    <i name="e_wo_entrp">    -87.23726429 </i>
    <i name="e_0_energy">    -87.23726429 </i>
   </energy>
  </scstep>
  <scstep>
   <time name="diag">    0.09    0.09</time>
   <time name="diis">    0.35    0.35</time>
   <time name="orth">    0.01    0.01</time>
   <time name="total">    0.61    0.61</time>
   <dipole>
    <v name="dipole">      0.36063699       0.21345744      -0.11990426 </v>
    <i name="Tr[quadrupol]">     17.46157481 </i>
    <i name="Echarged">      0.00000000 </i>
    <i name="Edipol_quadrupol">      0.00000000 </i>
    <i name="Eion">      0.00000000 </i>
   </dipole>
   <energy>
    <i name="e_fr_energy">    -87.23727720 </i>
    <i name="e_wo_entrp">    -87.23727720 </i>
    <i name="e_0_energy">    -87.23727720 </i>
   </energy>
  </scstep>
  <scstep>
   <time name="diag">    0.09    0.09</time>
   <time name="diis">    0.38    0.38</time>
   <time name="orth">    0.01    0.01</time>
   <time name="total">    0.63    0.64</time>
   <dipole>
    <v name="dipole">      0.36055602       0.21349819      -0.12005538 </v>
    <i name="Tr[quadrupol]">     17.46125777 </i>
    <i name="Echarged">      0.00000000 </i>
    <i name="Edipol_quadrupol">      0.00000000 </i>
    <i name="Eion">      0.00000000 </i>
   </dipole>
   <energy>
    <i name="e_fr_energy">    -87.23727940 </i>
    <i name="e_wo_entrp">    -87.23727940 </i>
    <i name="e_0_energy">    -87.23727940 </i>
   </energy>
  </scstep>
  <scstep>
   <time name="diag">    0.09    0.09</time>
   <time name="diis">    0.34    0.34</time>
   <time name="orth">    0.01    0.01</time>
   <time name="total">    0.59    0.59</time>
   <dipole>
    <v name="dipole">      0.36042413       0.21356279      -0.12029716 </v>
    <i name="Tr[quadrupol]">     17.46072907 </i>
    <i name="Echarged">      0.00000000 </i>
    <i name="Edipol_quadrupol">      0.00000000 </i>
    <i name="Eion">      0.00000000 </i>
   </dipole>
   <energy>
    <i name="e_fr_energy">    -87.23728255 </i>
    <i name="e_wo_entrp">    -87.23728255 </i>
    <i name="e_0_energy">    -87.23728255 </i>
   </energy>
  </scstep>
  <scstep>
   <time name="diag">    0.10    0.10</time>
   <time name="diis">    0.40    0.40</time>
   <time name="orth">    0.04    0.04</time>
   <time name="total">    0.63    0.64</time>
   <dipole>
    <v name="dipole">      0.36039475       0.21357464      -0.12034100 </v>
    <i name="Tr[quadrupol]">     17.46064961 </i>
    <i name="Echarged">      0.00000000 </i>
    <i name="Edipol_quadrupol">      0.00000000 </i>
    <i name="Eion">      0.00000000 </i>
   </dipole>
   <energy>
    <i name="alphaZ">      1.01156869 </i>
    <i name="ewald">   3078.72522273 </i>
    <i name="hartreedc">  -5447.14299742 </i>
    <i name="XCdc">    204.99008854 </i>
    <i name="pawpsdc">   3357.80246120 </i>
    <i name="pawaedc">  -3370.34010908 </i>
    <i name="eentropy">     -0.00000000 </i>
    <i name="bandstr">   -655.60628614 </i>
    <i name="atom">   2743.32276819 </i>
    <i name="e_fr_energy">    -87.23728329 </i>
    <i name="e_wo_entrp">    -87.23728329 </i>
    <i name="e_0_energy">    -87.23728329 </i>
   </energy>
  </scstep>
  <structure>
   <crystal>
    <varray name="basis" >
     <v>      20.00000118       0.00000000       0.00000000 </v>
     <v>       0.00000000      20.00000118       0.00000000 </v>
[...]
    <i name="e_0_energy">    -87.49014965 </i>
   </energy>
  </scstep>
  <scstep>
   <time name="diag">    0.10    0.10</time>
   <time name="diis">    0.38    0.38</time>
   <time name="orth">    0.01    0.01</time>
   <time name="total">    0.63    0.63</time>
   <dipole>
    <v name="dipole">      0.30902803       0.25961338      -0.11999569 </v>
    <i name="Tr[quadrupol]">     18.15909617 </i>
    <i name="Echarged">      0.00000000 </i>
    <i name="Edipol_quadrupol">      0.00000000 </i>
    <i name="Eion">      0.00000000 </i>
   </dipole>
   <energy>
    <i name="e_fr_energy">    -87.49015068 </i>
    <i name="e_wo_entrp">    -87.49015068 </i>
    <i name="e_0_energy">    -87.49015068 </i>
   </energy>
  </scstep>
  <scstep>
   <time name="diag">    0.09    0.09</time>
   <time name="diis">    0.39    0.39</time>
   <time name="orth">    0.01    0.01</time>
   <time name="total">    0.61    0.61</time>
   <dipole>
    <v name="dipole">      0.30902957       0.25962559      -0.11998424 </v>
    <i name="Tr[quadrupol]">     18.15892778 </i>
    <i name="Echarged">      0.00000000 </i>
    <i name="Edipol_quadrupol">      0.00000000 </i>
    <i name="Eion">      0.00000000 </i>
   </dipole>
   <energy>
    <i name="alphaZ">      1.01153923 </i>
    <i name="ewald">   3138.89155689 </i>
    <i name="hartreedc">  -5505.23275004 </i>
    <i name="XCdc">    205.23753902 </i>
    <i name="pawpsdc">   3363.13632654 </i>
    <i name="pawaedc">  -3375.66506194 </i>
    <i name="eentropy">     -0.00000000 </i>
    <i name="bandstr">   -658.19206910 </i>
    <i name="atom">   2743.32276819 </i>
    <i name="e_fr_energy">    -87.49015120 </i>
    <i name="e_wo_entrp">    -87.49015120 </i>
    <i name="e_0_energy">    -87.49015120 </i>
   </energy>
  </scstep>
  <structure>
   <crystal>
    <varray name="basis" >
     <v>      20.00000118       0.00000000       0.00000000 </v>
     <v>       0.00000000      20.00000118       0.00000000 </v>
     <v>       0.00000000       0.00000000      20.00000118 </v>
    </varray>
    <i name="volume">   8000.00141508 </i>
    <varray name="rec_basis" >
     <v>       0.05000000      -0.00000000      -0.00000000 </v>
     <v>       0.00000000       0.05000000      -0.00000000 </v>
     <v>       0.00000000       0.00000000       0.05000000 </v>
    </varray>
   </crystal>
   <varray name="positions" >
    <v>       0.51553342       0.48425596       0.42426754 </v>
    <v>       0.58234830       0.51865934       0.44529370 </v>
    <v>       0.51031169       0.51466283       0.57692638 </v>
    <v>       0.50811979       0.44214096       0.55097865 </v>
    <v>       0.60724038       0.48685554       0.54283006 </v>
    <v>       0.67626644       0.46940621       0.50812814 </v>
    <v>       0.41688539       0.44181478       0.47938337 </v>
    <v>       0.44739653       0.37248067       0.45528955 </v>
    <v>       0.33560604       0.49652014       0.53917928 </v>
    <v>       0.39270506       0.53935859       0.50608284 </v>
    <v>       0.49615608       0.56802556       0.47673975 </v>
    <v>       0.46876675       0.63229704       0.51627102 </v>
    <v>       0.53915630       0.52739969       0.42189907 </v>
    <v>       0.53161663       0.47082925       0.58352683 </v>
    <v>       0.64125115       0.50301348       0.50976204 </v>
    <v>       0.45967996       0.41668356       0.47125800 </v>
    <v>       0.35984659       0.50259256       0.49748465 </v>
    <v>       0.46695400       0.58374768       0.51582899 </v>
   </varray>
  </structure>
  <varray name="forces" >
   <v>       0.00235646      -0.00242548      -0.00455057 </v>
   <v>       0.00109977       0.00139339       0.00433504 </v>
   <v>      -0.00219223       0.00338030      -0.00076784 </v>
   <v>      -0.00149411      -0.00339265       0.00120050 </v>
   <v>       0.00590423      -0.00068568      -0.00149393 </v>
   <v>      -0.00363242      -0.00282428      -0.00114073 </v>
   <v>      -0.00147345      -0.00092643      -0.00562309 </v>
   <v>       0.00294389       0.00397595       0.00085860 </v>
   <v>      -0.00477904       0.00199403       0.00124551 </v>
   <v>      -0.00300468       0.00662697       0.00095984 </v>
   <v>       0.00693714       0.00266001       0.00521621 </v>
   <v>      -0.00763255      -0.00446621       0.00824503 </v>
   <v>       0.00360631      -0.00218143      -0.00304049 </v>
   <v>      -0.00078605       0.00268611      -0.00364753 </v>
   <v>       0.00034759      -0.00093765      -0.00557332 </v>
   <v>       0.00367504       0.00243547       0.00266959 </v>
   <v>       0.00513185      -0.00266380       0.00143695 </v>
   <v>      -0.00700777      -0.00464862      -0.00032977 </v>
  </varray>
  <varray name="stress" >
   <v>      -0.92174911      -0.00066942      -0.00919868 </v>
   <v>      -0.00066942      -0.90259133       0.01871772 </v>
   <v>      -0.00919868       0.01871772      -0.95953171 </v>
  </varray>
  <energy>
   <i name="e_fr_energy">    -87.49015120 </i>
   <i name="e_wo_entrp">    -87.49015120 </i>
   <i name="e_0_energy">     -0.00000000 </i>
  </energy>
  <time name="totalsc">   11.61   11.82</time>
 </calculation>
 <calculation>
  <scstep>
   <time name="dav">    0.55    0.55</time>
   <time name="total">    0.69    0.69</time>
   <dipole>
    <v name="dipole">      0.30898502       0.25955730      -0.11975923 </v>
    <i name="Tr[quadrupol]">     18.18258976 </i>
    <i name="Echarged">      0.00000000 </i>
    <i name="Edipol_quadrupol">      0.00000000 </i>
    <i name="Eion">      0.00000000 </i>
   </dipole>
   <energy>
    <i name="alphaZ">      1.01153814 </i>
    <i name="ewald">   3138.99990010 </i>
    <i name="hartreedc">  -5505.23276954 </i>
    <i name="XCdc">    205.23753817 </i>
    <i name="pawpsdc">   3363.13637249 </i>
    <i name="pawaedc">  -3375.66510890 </i>
    <i name="eentropy">     -0.00000000 </i>
    <i name="bandstr">   -658.30066492 </i>
    <i name="atom">   2743.32276819 </i>
    <i name="e_fr_energy">    -87.49042628 </i>
    <i name="e_wo_entrp">    -87.49042628 </i>
    <i name="e_0_energy">    -87.49042628 </i>
   </energy>
  </scstep>
  <scstep>
   <time name="diag">    0.09    0.09</time>
   <time name="diis">    0.53    0.53</time>
   <time name="orth">    0.01    0.01</time>
   <time name="total">    0.78    0.78</time>
   <dipole>
    <v name="dipole">      0.30884009       0.25955047      -0.11989274 </v>
    <i name="Tr[quadrupol]">     18.17893219 </i>
    <i name="Echarged">      0.00000000 </i>
    <i name="Edipol_quadrupol">      0.00000000 </i>
    <i name="Eion">      0.00000000 </i>
   </dipole>
   <energy>
    <i name="e_fr_energy">    -87.49023851 </i>
    <i name="e_wo_entrp">    -87.49023851 </i>
    <i name="e_0_energy">    -87.49023851 </i>
   </energy>
  </scstep>
  <scstep>
   <time name="diag">    0.10    0.10</time>
   <time name="diis">    0.55    0.55</time>
   <time name="orth">    0.01    0.01</time>
   <time name="total">    0.79    0.80</time>
   <dipole>
    <v name="dipole">      0.30860037       0.25952711      -0.12008351 </v>
    <i name="Tr[quadrupol]">     18.17308890 </i>
    <i name="Echarged">      0.00000000 </i>
    <i name="Edipol_quadrupol">      0.00000000 </i>
    <i name="Eion">      0.00000000 </i>
   </dipole>
   <energy>
    <i name="e_fr_energy">    -87.49014646 </i>
    <i name="e_wo_entrp">    -87.49014646 </i>
    <i name="e_0_energy">    -87.49014646 </i>
   </energy>
  </scstep>
  <scstep>
   <time name="diag">    0.09    0.09</time>
   <time name="diis">    0.51    0.54</time>
   <time name="orth">    0.01    0.01</time>
   <time name="total">    0.72    0.74</time>
   <dipole>
    <v name="dipole">      0.30857329       0.25951767      -0.12010010 </v>
    <i name="Tr[quadrupol]">     18.17226822 </i>
    <i name="Echarged">      0.00000000 </i>
    <i name="Edipol_quadrupol">      0.00000000 </i>
    <i name="Eion">      0.00000000 </i>
   </dipole>
   <energy>
    <i name="alphaZ">      1.01153663 </i>
    <i name="ewald">   3138.99990010 </i>
    <i name="hartreedc">  -5505.29820769 </i>
    <i name="XCdc">    205.23619229 </i>
    <i name="pawpsdc">   3363.07183142 </i>
    <i name="pawaedc">  -3375.60056379 </i>
    <i name="eentropy">     -0.00000000 </i>
    <i name="bandstr">   -658.23360335 </i>
    <i name="atom">   2743.32276819 </i>
    <i name="e_fr_energy">    -87.49014621 </i>
    <i name="e_wo_entrp">    -87.49014621 </i>
    <i name="e_0_energy">    -87.49014621 </i>
   </energy>
  </scstep>
  <structure>
   <crystal>
    <varray name="basis" >
     <v>      20.00000118       0.00000000       0.00000000 </v>
     <v>       0.00000000      20.00000118       0.00000000 </v>
     <v>       0.00000000       0.00000000      20.00000118 </v>
    </varray>
    <i name="volume">   8000.00141508 </i>
    <varray name="rec_basis" >
     <v>       0.05000000      -0.00000000      -0.00000000 </v>
     <v>       0.00000000       0.05000000      -0.00000000 </v>
     <v>       0.00000000       0.00000000       0.05000000 </v>
    </varray>
   </crystal>
   <varray name="positions" >
    <v>       0.51553229       0.48425406       0.42426169 </v>
    <v>       0.58235231       0.51865884       0.44529683 </v>
    <v>       0.51030531       0.51466085       0.57694209 </v>
    <v>       0.50811157       0.44213345       0.55099069 </v>
    <v>       0.60723642       0.48685169       0.54282479 </v>
    <v>       0.67623734       0.46938694       0.50808899 </v>
    <v>       0.41688683       0.44182825       0.47937378 </v>
    <v>       0.44738412       0.37248908       0.45530450 </v>
    <v>       0.33565866       0.49651125       0.53919517 </v>
    <v>       0.39271137       0.53938474       0.50606567 </v>
    <v>       0.49616648       0.56802597       0.47674844 </v>
    <v>       0.46875273       0.63229180       0.51627986 </v>
    <v>       0.53915986       0.52739777       0.42189726 </v>
    <v>       0.53160937       0.47082515       0.58353686 </v>
    <v>       0.64124614       0.50301120       0.50975814 </v>
    <v>       0.45968767       0.41669548       0.47124850 </v>
    <v>       0.35986039       0.50259663       0.49748200 </v>
    <v>       0.46694164       0.58374069       0.51583458 </v>
   </varray>
  </structure>
  <varray name="forces" >
   <v>       0.00354432      -0.00113437      -0.00409641 </v>
   <v>      -0.00006732       0.00096001       0.00398695 </v>
   <v>      -0.00208927       0.00200231      -0.00133672 </v>
   <v>      -0.00131100      -0.00186307       0.00130845 </v>
   <v>       0.00617605      -0.00071163      -0.00118328 </v>
   <v>      -0.00015645      -0.00573817      -0.00088016 </v>
   <v>       0.00198598      -0.00042132      -0.00535177 </v>
   <v>       0.00444303       0.00311446       0.00033766 </v>
   <v>      -0.00628245       0.00152641       0.00237111 </v>
   <v>      -0.00526380       0.00181753       0.00001157 </v>
   <v>       0.00352744       0.00280960       0.00803629 </v>
   <v>      -0.00756819      -0.00546430       0.00847216 </v>
   <v>       0.00312768      -0.00255392      -0.00206887 </v>
   <v>      -0.00130758       0.00256997      -0.00362387 </v>
   <v>      -0.00348825       0.00193287      -0.00625945 </v>
   <v>      -0.00086962       0.00299257       0.00305684 </v>
   <v>       0.00858179       0.00184235       0.00155817 </v>
   <v>      -0.00298236      -0.00368131      -0.00433867 </v>
  </varray>
  <varray name="stress" >
   <v>      -0.92257910      -0.00104570      -0.00866859 </v>
   <v>      -0.00104570      -0.90358463       0.01804013 </v>
   <v>      -0.00866859       0.01804013      -0.96114980 </v>
  </varray>
  <energy>
   <i name="e_fr_energy">    -87.49014621 </i>
   <i name="e_wo_entrp">    -87.49014621 </i>
   <i name="e_0_energy">     -0.00000000 </i>
  </energy>
  <time name="totalsc">    3.64    3.81</time>
 </calculation>
 <calculation>
  <scstep>
   <time name="dav">    0.57    0.57</time>
   <time name="total">    0.70    0.70</time>
   <dipole>
    <v name="dipole">      0.30855149       0.25954087      -0.12026525 </v>
    <i name="Tr[quadrupol]">     18.15550799 </i>
    <i name="Echarged">      0.00000000 </i>
    <i name="Edipol_quadrupol">      0.00000000 </i>
    <i name="Eion">      0.00000000 </i>
   </dipole>
   <energy>
    <i name="alphaZ">      1.01153711 </i>
    <i name="ewald">   3138.93225923 </i>
    <i name="hartreedc">  -5505.30562610 </i>
    <i name="XCdc">    205.23612945 </i>
    <i name="pawpsdc">   3363.03893876 </i>
    <i name="pawaedc">  -3375.56736467 </i>
    <i name="eentropy">     -0.00000000 </i>
    <i name="bandstr">   -658.15887573 </i>
    <i name="atom">   2743.32276819 </i>
    <i name="e_fr_energy">    -87.49023375 </i>
    <i name="e_wo_entrp">    -87.49023375 </i>
    <i name="e_0_energy">    -87.49023375 </i>
   </energy>
  </scstep>
  <scstep>
   <time name="diag">    0.09    0.09</time>
   <time name="diis">    0.49    0.50</time>
   <time name="orth">    0.01    0.01</time>
   <time name="total">    0.74    0.75</time>
   <dipole>
    <v name="dipole">      0.30863632       0.25954170      -0.12018566 </v>
    <i name="Tr[quadrupol]">     18.15683225 </i>
    <i name="Echarged">      0.00000000 </i>
    <i name="Edipol_quadrupol">      0.00000000 </i>
    <i name="Eion">      0.00000000 </i>
   </dipole>
   <energy>
    <i name="e_fr_energy">    -87.49017472 </i>
    <i name="e_wo_entrp">    -87.49017472 </i>
    <i name="e_0_energy">    -87.49017472 </i>
   </energy>
  </scstep>
  <scstep>
   <time name="diag">    0.09    0.09</time>
   <time name="diis">    0.49    0.49</time>
   <time name="orth">    0.01    0.01</time>
   <time name="total">    0.74    0.74</time>
   <dipole>
    <v name="dipole">      0.30878656       0.25955345      -0.12007043 </v>
    <i name="Tr[quadrupol]">     18.15873627 </i>
    <i name="Echarged">      0.00000000 </i>
    <i name="Edipol_quadrupol">      0.00000000 </i>
    <i name="Eion">      0.00000000 </i>
   </dipole>
   <energy>
    <i name="e_fr_energy">    -87.49015212 </i>
    <i name="e_wo_entrp">    -87.49015212 </i>
    <i name="e_0_energy">    -87.49015212 </i>
   </energy>
  </scstep>
  <scstep>
   <time name="diag">    0.09    0.09</time>
   <time name="diis">    0.44    0.44</time>
   <time name="orth">    0.01    0.01</time>
   <time name="total">    0.69    0.69</time>
   <dipole>
    <v name="dipole">      0.30881375       0.25956079      -0.12005841 </v>
    <i name="Tr[quadrupol]">     18.15876843 </i>
    <i name="Echarged">      0.00000000 </i>
    <i name="Edipol_quadrupol">      0.00000000 </i>
    <i name="Eion">      0.00000000 </i>
   </dipole>
   <energy>
    <i name="e_fr_energy">    -87.49015317 </i>
    <i name="e_wo_entrp">    -87.49015317 </i>
    <i name="e_0_energy">    -87.49015317 </i>
   </energy>
  </scstep>
  <scstep>
   <time name="diag">    0.09    0.09</time>
   <time name="diis">    0.38    0.38</time>
   <time name="orth">    0.01    0.01</time>
   <time name="total">    0.63    0.63</time>
   <dipole>
    <v name="dipole">      0.30887152       0.25957678      -0.12003382 </v>
    <i name="Tr[quadrupol]">     18.15892599 </i>
    <i name="Echarged">      0.00000000 </i>
    <i name="Edipol_quadrupol">      0.00000000 </i>
    <i name="Eion">      0.00000000 </i>
   </dipole>
   <energy>
    <i name="e_fr_energy">    -87.49015502 </i>
    <i name="e_wo_entrp">    -87.49015502 </i>
    <i name="e_0_energy">    -87.49015502 </i>
   </energy>
  </scstep>
  <scstep>
   <time name="diag">    0.09    0.09</time>
   <time name="diis">    0.43    0.43</time>
   <time name="orth">    0.01    0.01</time>
   <time name="total">    0.64    0.64</time>
   <dipole>
    <v name="dipole">      0.30889510       0.25958191      -0.12002154 </v>
    <i name="Tr[quadrupol]">     18.15913131 </i>
    <i name="Echarged">      0.00000000 </i>
    <i name="Edipol_quadrupol">      0.00000000 </i>
    <i name="Eion">      0.00000000 </i>
   </dipole>
   <energy>
    <i name="alphaZ">      1.01153846 </i>
    <i name="ewald">   3138.93225923 </i>
    <i name="hartreedc">  -5505.28082731 </i>
    <i name="XCdc">    205.23726578 </i>
    <i name="pawpsdc">   3363.08739644 </i>
    <i name="pawaedc">  -3375.61599455 </i>
    <i name="eentropy">     -0.00000000 </i>
    <i name="bandstr">   -658.18456167 </i>
    <i name="atom">   2743.32276819 </i>
    <i name="e_fr_energy">    -87.49015543 </i>
    <i name="e_wo_entrp">    -87.49015543 </i>
    <i name="e_0_energy">    -87.49015543 </i>
   </energy>
  </scstep>
  <structure>
   <crystal>
    <varray name="basis" >
     <v>      20.00000118       0.00000000       0.00000000 </v>
     <v>       0.00000000      20.00000118       0.00000000 </v>
     <v>       0.00000000       0.00000000      20.00000118 </v>
    </varray>
    <i name="volume">   8000.00141508 </i>
    <varray name="rec_basis" >
     <v>       0.05000000      -0.00000000      -0.00000000 </v>
     <v>       0.00000000       0.05000000      -0.00000000 </v>
     <v>       0.00000000       0.00000000       0.05000000 </v>
    </varray>
   </crystal>
   <varray name="positions" >
    <v>       0.51553300       0.48425525       0.42426535 </v>
    <v>       0.58234981       0.51865915       0.44529488 </v>
    <v>       0.51030929       0.51466209       0.57693228 </v>
    <v>       0.50811670       0.44213814       0.55098317 </v>
    <v>       0.60723890       0.48685410       0.54282808 </v>
    <v>       0.67625552       0.46939897       0.50811344 </v>
    <v>       0.41688593       0.44181984       0.47937977 </v>
    <v>       0.44739187       0.37248383       0.45529516 </v>
    <v>       0.33562580       0.49651680       0.53918525 </v>
    <v>       0.39270743       0.53936841       0.50607639 </v>
    <v>       0.49615998       0.56802572       0.47674301 </v>
    <v>       0.46876148       0.63229507       0.51627434 </v>
    <v>       0.53915764       0.52739897       0.42189839 </v>
    <v>       0.53161390       0.47082771       0.58353060 </v>
    <v>       0.64124927       0.50301262       0.50976058 </v>
    <v>       0.45968285       0.41668804       0.47125443 </v>
    <v>       0.35985177       0.50259409       0.49748366 </v>
    <v>       0.46694936       0.58374505       0.51583109 </v>
   </varray>
  </structure>
  <varray name="forces" >
   <v>       0.00281766      -0.00182920      -0.00441220 </v>
   <v>       0.00040381       0.00129677       0.00403273 </v>
   <v>      -0.00221269       0.00284341      -0.00097632 </v>
   <v>      -0.00147572      -0.00279167       0.00126819 </v>
   <v>       0.00563252      -0.00077555      -0.00125622 </v>
   <v>      -0.00239319      -0.00397369      -0.00111608 </v>
   <v>      -0.00008765      -0.00076585      -0.00558720 </v>
   <v>       0.00344368       0.00363734       0.00063414 </v>
   <v>      -0.00540148       0.00179097       0.00183890 </v>
   <v>      -0.00397819       0.00466210       0.00049470 </v>
   <v>       0.00569523       0.00273029       0.00618512 </v>
   <v>      -0.00764247      -0.00488047       0.00828291 </v>
   <v>       0.00366143      -0.00199598      -0.00248116 </v>
   <v>      -0.00049193       0.00271862      -0.00394346 </v>
   <v>      -0.00040526       0.00030635      -0.00544328 </v>
   <v>       0.00173009       0.00220667       0.00301280 </v>
   <v>       0.00584523      -0.00118153       0.00135793 </v>
   <v>      -0.00514107      -0.00399858      -0.00189152 </v>
  </varray>
  <varray name="stress" >
   <v>      -0.92224871      -0.00091670      -0.00911201 </v>
   <v>      -0.00091670      -0.90302382       0.01848078 </v>
   <v>      -0.00911201       0.01848078      -0.95985109 </v>
  </varray>
  <energy>
   <i name="e_fr_energy">    -87.49015543 </i>
   <i name="e_wo_entrp">    -87.49015543 </i>
   <i name="e_0_energy">     -0.00000000 </i>
  </energy>
 </calculation>
</modeling>
