VaspCalc                                
           1
    20.000000    0.000000    0.000000
     0.000000   20.000000    0.000000
     0.000000    0.000000   20.000000
   H    O 
  12   6
Direct configuration=     1
   0.51696044  0.48231771  0.42450384
   0.58250409  0.51749296  0.44267829
   0.50958844  0.51448731  0.57599144
   0.50881759  0.44253796  0.55194014
   0.61067104  0.48867021  0.54297044
   0.68202664  0.47599011  0.51539879
   0.41832169  0.43807436  0.47809879
   0.44818364  0.37077486  0.45331244
   0.32000000  0.49750456  0.53770659
   0.39097829  0.53815556  0.50631739
   0.49542619  0.56961846  0.47781379
   0.47029514  0.63315261  0.51581875
   0.53931234  0.52526726  0.42129739
   0.53148534  0.47185586  0.58328284
   0.64368714  0.50445581  0.51036774
   0.46046439  0.41406651  0.47018254
   0.36007474  0.50112251  0.49787849
   0.46704339  0.58519926  0.51557024
Direct configuration=     2
   0.51566464  0.48039029  0.42458202
   0.58476052  0.51736126  0.44376863
   0.50870912  0.51661325  0.57583155
   0.50789108  0.44094277  0.55052170
   0.60865027  0.48805522  0.54461430
   0.68374536  0.47489498  0.51534007
   0.41618050  0.43949427  0.47879111
   0.44796160  0.36894092  0.45262045
   0.33320555  0.49982356  0.52620240
   0.39152537  0.54062896  0.50856160
   0.49689175  0.56847987  0.47582104
   0.47019695  0.63510642  0.51605651
   0.53845427  0.52735359  0.42009877
   0.53342211  0.47129387  0.58493333
   0.64384181  0.50611487  0.50873242
   0.46269531  0.41462509  0.47038513
   0.34647014  0.49649229  0.50703214
   0.46557416  0.58413235  0.51723667
Direct configuration=     3
   0.51683086  0.48212497  0.42451166
   0.58272973  0.51747979  0.44278732
   0.50950051  0.51469990  0.57597545
   0.50872494  0.44237844  0.55179829
   0.61046896  0.48860871  0.54313482
   0.68219851  0.47588059  0.51539291
   0.41810757  0.43821635  0.47816802
   0.44816144  0.37059146  0.45324324
   0.32132056  0.49773646  0.53655617
   0.39103300  0.53840290  0.50654181
   0.49557275  0.56950460  0.47761451
   0.47028532  0.63334799  0.51584252
   0.53922653  0.52547589  0.42117753
   0.53167902  0.47179966  0.58344789
   0.64370261  0.50462171  0.51020420
   0.46068748  0.41412237  0.47020280
   0.35871428  0.50065949  0.49879385
   0.46689647  0.58509257  0.51573688
Direct configuration=     4
   0.51660156  0.48189817  0.42450844
   0.58308371  0.51751576  0.44295965
   0.50943159  0.51499062  0.57599866
   0.50864568  0.44212682  0.55163329
   0.61009147  0.48856133  0.54336794
   0.68244133  0.47576165  0.51531932
   0.41778222  0.43844444  0.47833461
   0.44819394  0.37035751  0.45316233
   0.32444064  0.49834940  0.53395176
   0.39031075  0.53811884  0.50701057
   0.49584199  0.56920972  0.47723305
   0.47020286  0.63358392  0.51593018
   0.53912367  0.52569836  0.42104085
   0.53188593  0.47175355  0.58359773
   0.64375257  0.50477247  0.51002683
   0.46087892  0.41421427  0.47020653
   0.35650669  0.50040796  0.50088027
   0.46662502  0.58497906  0.51596785
Direct configuration=     5
   0.51664289  0.48197006  0.42450496
   0.58299956  0.51752646  0.44292060
   0.50946279  0.51492383  0.57600583
   0.50868211  0.44217972  0.55168454
   0.61016147  0.48858948  0.54330225
   0.68238770  0.47579667  0.51531578
   0.41786184  0.43838615  0.47831539
   0.44820580  0.37042425  0.45318826
   0.32327447  0.49825961  0.53513166
   0.39028005  0.53808021  0.50699147
   0.49577453  0.56924731  0.47732159
   0.47019895  0.63351235  0.51592790
   0.53916398  0.52561981  0.42109315
   0.53182049  0.47177045  0.58353489
   0.64372954  0.50470975  0.51009540
   0.46077487  0.41421089  0.47020140
   0.35772618  0.50053796  0.49971911
   0.46669329  0.58499885  0.51587566
Direct configuration=     6
   0.51659484  0.48196991  0.42449910
   0.58304286  0.51755930  0.44294530
   0.50947752  0.51496115  0.57602661
   0.50869808  0.44213833  0.55168048
   0.61008356  0.48860783  0.54331673
   0.68241904  0.47579446  0.51527451
   0.41781376  0.43841999  0.47836946
   0.44824158  0.37041504  0.45318943
   0.32374935  0.49845168  0.53488855
   0.38998321  0.53797483  0.50718745
   0.49580142  0.56916217  0.47727076
   0.47015530  0.63351097  0.51596647
   0.53917586  0.52560808  0.42110429
   0.53182177  0.47177626  0.58351431
   0.64372403  0.50468629  0.51011216
   0.46072589  0.41423435  0.47019121
   0.35766210  0.50048639  0.49974007
   0.46667034  0.58498680  0.51585296
Direct configuration=     7
   0.51647989  0.48199649  0.42448587
   0.58312760  0.51764986  0.44300244
   0.50952780  0.51503923  0.57608108
   0.50875277  0.44204505  0.55168233
   0.60989704  0.48866460  0.54333085
   0.68247833  0.47579903  0.51515972
   0.41769570  0.43849204  0.47851680
   0.44834165  0.37041259  0.45320183
   0.32471659  0.49893441  0.53455612
   0.38927418  0.53778682  0.50772089
   0.49583473  0.56894803  0.47717693
   0.47003547  0.63347306  0.51607131
   0.53922572  0.52555262  0.42115554
   0.53181169  0.47180127  0.58344196
   0.64369265  0.50460239  0.51018176
   0.46056467  0.41430617  0.47016433
   0.35774090  0.50029164  0.49945609
   0.46664312  0.58494854  0.51574401
Direct configuration=     8
   0.51641258  0.48202435  0.42448286
   0.58317022  0.51770493  0.44304178
   0.50956316  0.51508123  0.57611075
   0.50879219  0.44199472  0.55168477
   0.60978374  0.48869829  0.54333182
   0.68249883  0.47580382  0.51508331
   0.41760834  0.43853006  0.47862037
   0.44840744  0.37042423  0.45321581
   0.32515943  0.49921086  0.53453126
   0.38892007  0.53775972  0.50805745
   0.49583426  0.56881553  0.47713318
   0.46995713  0.63342514  0.51613918
   0.53926458  0.52551474  0.42119705
   0.53180930  0.47182173  0.58339336
   0.64366077  0.50454478  0.51023175
   0.46045628  0.41436209  0.47014858
   0.35790639  0.50011657  0.49907255
   0.46663580  0.58491104  0.51565401
Direct configuration=     9
   0.51635929  0.48205324  0.42449033
   0.58320309  0.51774379  0.44308761
   0.50959351  0.51511366  0.57612623
   0.50882818  0.44196105  0.55168224
   0.60968503  0.48871603  0.54333220
   0.68249634  0.47580410  0.51501494
   0.41750686  0.43855616  0.47872600
   0.44846451  0.37044583  0.45323390
   0.32544864  0.49939268  0.53459893
   0.38873399  0.53781769  0.50831119
   0.49581753  0.56870049  0.47709654
   0.46988868  0.63335998  0.51619740
   0.53929922  0.52549341  0.42123664
   0.53182276  0.47184180  0.58335680
   0.64361888  0.50450277  0.51026891
   0.46036934  0.41442757  0.47013957
   0.35808277  0.49995962  0.49865770
   0.46662189  0.58485399  0.51557274
Direct configuration=    10
   0.51635072  0.48206320  0.42450162
   0.58320942  0.51774415  0.44311074
   0.50960026  0.51511850  0.57612029
   0.50883868  0.44196244  0.55167729
   0.60965909  0.48870827  0.54333409
   0.68247740  0.47579973  0.51499682
   0.41746163  0.43855629  0.47876529
   0.44847862  0.37046167  0.45324377
   0.32549073  0.49937729  0.53462507
   0.38877446  0.53786490  0.50832025
   0.49580410  0.56866992  0.47708121
   0.46987198  0.63332472  0.51621025
   0.53930615  0.52550078  0.42124779
   0.53184010  0.47184728  0.58335327
   0.64359728  0.50450238  0.51026936
   0.46035377  0.41445853  0.47014266
   0.35812196  0.49996547  0.49857093
   0.46660413  0.58481830  0.51555918
Direct configuration=    11
   0.51632064  0.48211098  0.42455687
   0.58323080  0.51773814  0.44321682
   0.50963047  0.51513279  0.57608765
   0.50888704  0.44197979  0.55165604
   0.60955144  0.48866607  0.54334155
   0.68237935  0.47577882  0.51491946
   0.41726755  0.43854994  0.47893714
   0.44853947  0.37054144  0.45329141
   0.32569801  0.49925671  0.53467530
   0.38899037  0.53804494  0.50829308
   0.49574292  0.56853855  0.47700804
   0.46980213  0.63316012  0.51626217
   0.53933366  0.52553890  0.42129736
   0.53191862  0.47186995  0.58333896
   0.64349745  0.50450722  0.51026565
   0.46028195  0.41460010  0.47016324
   0.35825426  0.50007713  0.49830600
   0.46651440  0.58465224  0.51551311
Direct configuration=    12
   0.51627488  0.48219852  0.42465082
   0.58325767  0.51772721  0.44339461
   0.50968561  0.51515020  0.57603176
   0.50897293  0.44201569  0.55162413
   0.60937684  0.48859482  0.54334940
   0.68220511  0.47574503  0.51478873
   0.41695980  0.43853803  0.47921844
   0.44864362  0.37068579  0.45337552
   0.32610010  0.49903781  0.53468533
   0.38933772  0.53829476  0.50820882
   0.49563999  0.56831815  0.47688419
   0.46968487  0.63287769  0.51634742
   0.53937988  0.52559841  0.42138408
   0.53204189  0.47190705  0.58330996
   0.64332808  0.50451288  0.51026180
   0.46014463  0.41483628  0.47020575
   0.35844440  0.50033192  0.49796854
   0.46636249  0.58437360  0.51544056
Direct configuration=    13
   0.51619716  0.48236627  0.42481933
   0.58329128  0.51770971  0.44371263
   0.50979269  0.51517417  0.57593169
   0.50913372  0.44208560  0.55157105
   0.60907150  0.48846976  0.54335529
   0.68188092  0.47568579  0.51455059
   0.41643788  0.43852383  0.47970658
   0.44883323  0.37095878  0.45353199
   0.32689193  0.49864446  0.53462006
   0.38992695  0.53867274  0.50801978
   0.49545468  0.56792224  0.47666577
   0.46947224  0.63236396  0.51649870
   0.53946326  0.52569602  0.42154582
   0.53224698  0.47197202  0.58325072
   0.64302126  0.50451644  0.51026111
   0.45987200  0.41525395  0.47029909
   0.35875520  0.50085181  0.49747887
   0.46609765  0.58387628  0.51531080
Direct configuration=    14
   0.51613897  0.48251007  0.42495243
   0.58329941  0.51769929  0.44396578
   0.50988764  0.51518720  0.57585214
   0.50926730  0.44214419  0.55153072
   0.60883746  0.48837401  0.54335121
   0.68160943  0.47563830  0.51435572
   0.41606216  0.43853195  0.48006526
   0.44898416  0.37119164  0.45366302
   0.32758986  0.49834339  0.53449193
   0.39035962  0.53889854  0.50782993
   0.49530821  0.56760814  0.47649975
   0.46929979  0.63194927  0.51661619
   0.53952717  0.52576473  0.42168020
   0.53238918  0.47201979  0.58319891
   0.64277521  0.50451222  0.51026621
   0.45962912  0.41557307  0.47040215
   0.35897126  0.50131124  0.49720067
   0.46590455  0.58348679  0.51520764
Direct configuration=    15
   0.51611462  0.48258263  0.42500961
   0.58328016  0.51770025  0.44408106
   0.50994123  0.51518976  0.57581632
   0.50933027  0.44216946  0.55151094
   0.60874227  0.48833626  0.54334083
   0.68147418  0.47561284  0.51426076
   0.41594208  0.43857267  0.48017881
   0.44904623  0.37130986  0.45372814
   0.32796277  0.49823307  0.53438093
   0.39051425  0.53891949  0.50770710
   0.49524824  0.56747086  0.47643684
   0.46921865  0.63176352  0.51666403
   0.53954911  0.52578826  0.42174401
   0.53242638  0.47203376  0.58317563
   0.64266356  0.50450469  0.51027252
   0.45950265  0.41569523  0.47049283
   0.35903688  0.50154186  0.49716552
   0.46584699  0.58331938  0.51516398
Direct configuration=    16
   0.51610922  0.48259662  0.42501667
   0.58325893  0.51770556  0.44410420
   0.50995808  0.51519087  0.57580927
   0.50933964  0.44216941  0.55150248
   0.60873230  0.48833362  0.54333495
   0.68144259  0.47560131  0.51423756
   0.41595564  0.43862119  0.48015264
   0.44904622  0.37133502  0.45374256
   0.32804498  0.49823728  0.53436586
   0.39052103  0.53887453  0.50766433
   0.49524762  0.56745269  0.47643567
   0.46920230  0.63173708  0.51666663
   0.53954426  0.52579051  0.42175409
   0.53241207  0.47202778  0.58317713
   0.64264405  0.50450255  0.51027340
   0.45948442  0.41569757  0.47055175
   0.35903297  0.50157388  0.49717756
   0.46586419  0.58329635  0.51516311
Direct configuration=    17
   0.51609328  0.48262353  0.42503325
   0.58320891  0.51771837  0.44416307
   0.50999683  0.51519625  0.57579046
   0.50935660  0.44216613  0.55147762
   0.60870612  0.48832563  0.54332529
   0.68136787  0.47556849  0.51418040
   0.41598172  0.43875151  0.48008054
   0.44903778  0.37139087  0.45377631
   0.32820661  0.49824685  0.53438117
   0.39056227  0.53879086  0.50756603
   0.49525396  0.56741259  0.47643138
   0.46916438  0.63167892  0.51666985
   0.53952750  0.52580203  0.42177291
   0.53237975  0.47201034  0.58318811
   0.64259831  0.50450267  0.51027006
   0.45946416  0.41569992  0.47070242
   0.35902700  0.50161780  0.49715056
   0.46590745  0.58324107  0.51517046
Direct configuration=    18
   0.51604766  0.48268521  0.42507999
   0.58309492  0.51774794  0.44432178
   0.51009049  0.51521177  0.57573836
   0.50939550  0.44215912  0.55141154
   0.60862557  0.48829817  0.54331007
   0.68117683  0.47548088  0.51403094
   0.41601225  0.43907276  0.47992236
   0.44901437  0.37153279  0.45386397
   0.32858781  0.49824681  0.53446851
   0.39072564  0.53864477  0.50732553
   0.49527295  0.56730424  0.47640690
   0.46906691  0.63152483  0.51667995
   0.53948420  0.52584193  0.42181714
   0.53231799  0.47196797  0.58322060
   0.64247731  0.50451002  0.51025463
   0.45943399  0.41572239  0.47107207
   0.35901995  0.50170592  0.49700774
   0.46599618  0.58308632  0.51519778
Direct configuration=    19
   0.51595841  0.48278678  0.42516971
   0.58291101  0.51779817  0.44461664
   0.51025083  0.51523880  0.57564038
   0.50945868  0.44215087  0.55129355
   0.60846003  0.48824013  0.54329640
   0.68083368  0.47531941  0.51375540
   0.41602287  0.43962153  0.47968117
   0.44897108  0.37179120  0.45402569
   0.32925108  0.49821168  0.53466786
   0.39108904  0.53846843  0.50690643
   0.49531106  0.56710053  0.47634388
   0.46888993  0.63123930  0.51670182
   0.53940764  0.52592472  0.42189316
   0.53223870  0.47189634  0.58328113
   0.64225320  0.50452995  0.51022045
   0.45939905  0.41579115  0.47170411
   0.35901262  0.50184557  0.49667483
   0.46612158  0.58278927  0.51525726
Direct configuration=    20
   0.51587111  0.48286336  0.42525172
   0.58276956  0.51784315  0.44488220
   0.51038240  0.51525745  0.57555187
   0.50950154  0.44214888  0.55119537
   0.60829322  0.48818306  0.54330067
   0.68053301  0.47517190  0.51350187
   0.41600573  0.44007050  0.47950699
   0.44892579  0.37202553  0.45417519
   0.32982397  0.49815051  0.53487713
   0.39146512  0.53838758  0.50654695
   0.49535574  0.56691795  0.47627353
   0.46873268  0.63098501  0.51672270
   0.53933946  0.52600499  0.42195552
   0.53220116  0.47183647  0.58333497
   0.64205117  0.50455111  0.51018629
   0.45938484  0.41588127  0.47221874
   0.35900239  0.50195124  0.49632454
   0.46620164  0.58251387  0.51532364
Direct configuration=    21
   0.51583919  0.48286720  0.42527122
   0.58274587  0.51786101  0.44495146
   0.51040693  0.51525342  0.57552973
   0.50949225  0.44215226  0.55117972
   0.60823394  0.48816734  0.54331857
   0.68045696  0.47512487  0.51342047
   0.41600029  0.44016411  0.47947922
   0.44889551  0.37209368  0.45422339
   0.32996643  0.49811942  0.53496245
   0.39159316  0.53841223  0.50645420
   0.49538907  0.56687796  0.47625109
   0.46869129  0.63092623  0.51672498
   0.53931577  0.52602710  0.42196531
   0.53221622  0.47181964  0.58334964
   0.64199719  0.50455667  0.51017631
   0.45940547  0.41592543  0.47231376
   0.35898724  0.50195570  0.49619888
   0.46620775  0.58243955  0.51535948
Direct configuration=    22
   0.51582540  0.48284759  0.42526826
   0.58275685  0.51787404  0.44495199
   0.51039599  0.51523803  0.57553276
   0.50946137  0.44215792  0.55119770
   0.60821114  0.48816836  0.54334074
   0.68045298  0.47510861  0.51338920
   0.41600572  0.44014188  0.47949989
   0.44886432  0.37210777  0.45424142
   0.32998084  0.49810260  0.53499967
   0.39161930  0.53845487  0.50644258
   0.49542186  0.56688876  0.47625313
   0.46868595  0.63093276  0.51672063
   0.53930603  0.52602365  0.42196032
   0.53224798  0.47181581  0.58334694
   0.64198886  0.50455269  0.51017947
   0.45944294  0.41595705  0.47226118
   0.35897561  0.50193637  0.49616233
   0.46619736  0.58243507  0.51538165
Direct configuration=    23
   0.51580973  0.48282235  0.42526113
   0.58276363  0.51789502  0.44494414
   0.51038145  0.51521337  0.57554262
   0.50941536  0.44216420  0.55122949
   0.60818753  0.48817367  0.54336820
   0.68044511  0.47508579  0.51334287
   0.41602968  0.44011629  0.47952212
   0.44881655  0.37212443  0.45426759
   0.33000916  0.49808772  0.53503877
   0.39162411  0.53848429  0.50641740
   0.49546798  0.56691111  0.47627072
   0.46867794  0.63094551  0.51671328
   0.53929218  0.52601089  0.42195597
   0.53228427  0.47180948  0.58333824
   0.64197813  0.50454194  0.51018952
   0.45949540  0.41599621  0.47218017
   0.35896382  0.50192170  0.49614280
   0.46619848  0.58243987  0.51540482
Direct configuration=    24
   0.51576984  0.48278397  0.42525568
   0.58274619  0.51794755  0.44495577
   0.51037159  0.51516179  0.57555965
   0.50932203  0.44217287  0.55129140
   0.60812401  0.48817923  0.54342185
   0.68037777  0.47501485  0.51320302
   0.41610135  0.44013498  0.47954029
   0.44870726  0.37218946  0.45434685
   0.33016873  0.49805540  0.53513485
   0.39165187  0.53850086  0.50629943
   0.49557066  0.56693842  0.47631669
   0.46863575  0.63093854  0.51670073
   0.53925288  0.52598722  0.42195951
   0.53234463  0.47178700  0.58332079
   0.64192560  0.50451704  0.51021233
   0.45959397  0.41608884  0.47207024
   0.35894415  0.50192354  0.49608958
   0.46623221  0.58242227  0.51545122
Direct configuration=    25
   0.51571291  0.48275054  0.42526029
   0.58268653  0.51802182  0.44500203
   0.51038274  0.51509944  0.57558046
   0.50920597  0.44217419  0.55136525
   0.60802902  0.48817689  0.54348585
   0.68022901  0.47489497  0.51297387
   0.41622246  0.44024954  0.47953063
   0.44855871  0.37230419  0.45447652
   0.33048708  0.49801226  0.53527974
   0.39171141  0.53847548  0.50607246
   0.49571110  0.56695059  0.47638610
   0.46855205  0.63089414  0.51668811
   0.53918948  0.52596403  0.42197633
   0.53240030  0.47174702  0.58330126
   0.64182514  0.50448570  0.51024088
   0.45970204  0.41621627  0.47199526
   0.35892171  0.50195653  0.49600488
   0.46631285  0.58237024  0.51550996
Direct configuration=    26
   0.51566375  0.48273582  0.42527545
   0.58260027  0.51808722  0.44506588
   0.51041334  0.51505414  0.57560464
   0.50910904  0.44215913  0.55142649
   0.60794096  0.48816186  0.54353471
   0.68003829  0.47476188  0.51272978
   0.41635774  0.44043940  0.47949722
   0.44842614  0.37242225  0.45461276
   0.33086461  0.49797239  0.53542772
   0.39178189  0.53841666  0.50580722
   0.49584202  0.56694058  0.47645751
   0.46845254  0.63082949  0.51668123
   0.53912200  0.52595372  0.42199912
   0.53242268  0.47170218  0.58328819
   0.64171002  0.50446345  0.51026276
   0.45977229  0.41633092  0.47197724
   0.35890478  0.50200811  0.49592126
   0.46641814  0.58230465  0.51556070
Direct configuration=    27
   0.51564249  0.48273887  0.42529409
   0.58252583  0.51811759  0.44511538
   0.51044565  0.51504208  0.57563165
   0.50905836  0.44212940  0.55146115
   0.60789344  0.48813665  0.54355404
   0.67987564  0.47465982  0.51255563
   0.41645584  0.44062558  0.47946907
   0.44835354  0.37248967  0.45470580
   0.33115603  0.49794355  0.53553335
   0.39183714  0.53836762  0.50560550
   0.49592371  0.56691741  0.47650583
   0.46837504  0.63077913  0.51668232
   0.53907452  0.52596061  0.42201488
   0.53240927  0.47166953  0.58328671
   0.64162510  0.50446098  0.51026966
   0.45978716  0.41639742  0.47198595
   0.35889910  0.50205076  0.49586804
   0.46650266  0.58225716  0.51559081
Direct configuration=    28
   0.51563607  0.48274901  0.42531719
   0.58245743  0.51812809  0.44515767
   0.51047763  0.51504810  0.57567071
   0.50902329  0.44208474  0.55149120
   0.60786200  0.48809767  0.54356047
   0.67970692  0.47455716  0.51239403
   0.41653420  0.44082377  0.47946131
   0.44830497  0.37252679  0.45478597
   0.33143414  0.49790675  0.53563715
   0.39189693  0.53834577  0.50542048
   0.49599180  0.56688409  0.47654347
   0.46830051  0.63073721  0.51668955
   0.53903370  0.52598057  0.42202550
   0.53237958  0.47164093  0.58329372
   0.64154629  0.50447358  0.51026808
   0.45977712  0.41645416  0.47197818
   0.35890362  0.50208949  0.49581724
   0.46657429  0.58221594  0.51561795
Direct configuration=    29
   0.51564497  0.48275458  0.42533860
   0.58239758  0.51812205  0.44517611
   0.51049971  0.51506434  0.57573793
   0.50898229  0.44202048  0.55153579
   0.60784859  0.48804383  0.54356002
   0.67952540  0.47443921  0.51222375
   0.41661331  0.44103008  0.47948274
   0.44825925  0.37252456  0.45486127
   0.33170314  0.49785810  0.53575956
   0.39194535  0.53836401  0.50524284
   0.49606767  0.56685796  0.47658545
   0.46822872  0.63072457  0.51669848
   0.53899429  0.52600863  0.42202488
   0.53233654  0.47161202  0.58331079
   0.64147683  0.50450040  0.51026142
   0.45976267  0.41650831  0.47189727
   0.35891534  0.50211124  0.49578012
   0.46663884  0.58219946  0.51565284
Direct configuration=    30
   0.51566482  0.48274991  0.42534752
   0.58237145  0.51810269  0.44515633
   0.51049880  0.51507973  0.57581975
   0.50893982  0.44195827  0.55158980
   0.60785569  0.48799143  0.54355298
   0.67938691  0.47433410  0.51208582
   0.41667139  0.44117005  0.47953280
   0.44822041  0.37248052  0.45491183
   0.33188281  0.49780867  0.53587295
   0.39195974  0.53843056  0.50512966
   0.49613349  0.56685520  0.47662343
   0.46818342  0.63075500  0.51670447
   0.53896914  0.52603316  0.42201123
   0.53229500  0.47158908  0.58333768
   0.64144031  0.50453258  0.51025412
   0.45975803  0.41654779  0.47173962
   0.35893599  0.50210439  0.49577095
   0.46667330  0.58222071  0.51568893
Direct configuration=    31
   0.51568233  0.48273964  0.42533805
   0.58238849  0.51808277  0.44511036
   0.51047686  0.51508237  0.57587591
   0.50891527  0.44193151  0.55162659
   0.60787603  0.48796673  0.54354027
   0.67935143  0.47428601  0.51203557
   0.41668857  0.44118352  0.47957369
   0.44820015  0.37242438  0.45491852
   0.33190260  0.49778352  0.53592769
   0.39193289  0.53850520  0.50512556
   0.49615734  0.56687883  0.47664324
   0.46818465  0.63081092  0.51670284
   0.53896949  0.52604084  0.42199339
   0.53227010  0.47157896  0.58336701
   0.64145228  0.50455209  0.51025089
   0.45976668  0.41655295  0.47159422
   0.35895792  0.50207530  0.49579684
   0.46666742  0.58226827  0.51570923
Direct configuration=    32
   0.51569004  0.48273420  0.42532177
   0.58241888  0.51806904  0.44506799
   0.51045241  0.51507425  0.57590998
   0.50890385  0.44192940  0.55164693
   0.60789008  0.48795690  0.54352258
   0.67935380  0.47425865  0.51201311
   0.41668822  0.44115201  0.47958898
   0.44818397  0.37238460  0.45491297
   0.33188033  0.49776980  0.53595748
   0.39190190  0.53856809  0.50515543
   0.49615614  0.56690736  0.47665293
   0.46820171  0.63086045  0.51669727
   0.53898087  0.52604080  0.42198062
   0.53225045  0.47157036  0.58340262
   0.64147696  0.50456165  0.51025019
   0.45977877  0.41654542  0.47149973
   0.35898331  0.50204871  0.49582920
   0.46664881  0.58231215  0.51572009
Direct configuration=    33
   0.51568970  0.48273702  0.42529677
   0.58245921  0.51805598  0.44502126
   0.51042247  0.51505312  0.57595210
   0.50889183  0.44193805  0.55166778
   0.60789424  0.48794349  0.54348930
   0.67934061  0.47420385  0.51195439
   0.41669040  0.44112092  0.47958080
   0.44814958  0.37235157  0.45491615
   0.33189540  0.49774718  0.53600899
   0.39187306  0.53864878  0.50517980
   0.49614507  0.56694401  0.47666697
   0.46822160  0.63091520  0.51668729
   0.53899866  0.52604101  0.42197019
   0.53221347  0.47154911  0.58347024
   0.64150422  0.50457016  0.51024986
   0.45979452  0.41653785  0.47141214
   0.35902928  0.50202466  0.49587132
   0.46662719  0.58236188  0.51573451
Direct configuration=    34
   0.51567688  0.48275716  0.42525380
   0.58251450  0.51804036  0.44496092
   0.51038037  0.51500776  0.57602917
   0.50887007  0.44195618  0.55169952
   0.60788003  0.48791285  0.54342088
   0.67926619  0.47406906  0.51179069
   0.41671223  0.44112065  0.47952769
   0.44806895  0.37232385  0.45494707
   0.33202762  0.49769843  0.53612646
   0.39184876  0.53877557  0.50517193
   0.49612463  0.56699868  0.47669895
   0.46823990  0.63098823  0.51666866
   0.53902501  0.52604722  0.42196161
   0.53212950  0.47149613  0.58361065
   0.64153137  0.50458098  0.51024832
   0.45981578  0.41653400  0.47131277
   0.35912088  0.50200492  0.49593852
   0.46660784  0.58243180  0.51576226
Direct configuration=    35
   0.51564757  0.48280258  0.42520555
   0.58255782  0.51802941  0.44491963
   0.51034413  0.51494558  0.57613345
   0.50884048  0.44197509  0.55173509
   0.60783270  0.48786189  0.54332713
   0.67909476  0.47384723  0.51150136
   0.41676034  0.44120384  0.47942341
   0.44794618  0.37232837  0.45502194
   0.33234927  0.49762106  0.53631133
   0.39186185  0.53891574  0.50508919
   0.49610282  0.56704667  0.47674643
   0.46823513  0.63104458  0.51664736
   0.53904842  0.52606658  0.42196388
   0.53200448  0.47141195  0.58380374
   0.64152993  0.50458916  0.51024379
   0.45982926  0.41654812  0.47125431
   0.35924757  0.50201627  0.49600277
   0.46660780  0.58248974  0.51579951
Direct configuration=    36
   0.51561827  0.48285181  0.42517841
   0.58256001  0.51803011  0.44492607
   0.51033470  0.51490168  0.57621320
   0.50881706  0.44198031  0.55175471
   0.60777478  0.48781721  0.54326099
   0.67890580  0.47365089  0.51123122
   0.41681034  0.44133845  0.47932134
   0.44784746  0.37236654  0.45510368
   0.33271053  0.49755478  0.53646813
   0.39191357  0.53898810  0.50497173
   0.49609245  0.56705843  0.47678313
   0.46820762  0.63105055  0.51663596
   0.53905391  0.52609238  0.42197676
   0.53190702  0.47134187  0.58393796
   0.64149548  0.50458507  0.51023682
   0.45982456  0.41657366  0.47127961
   0.35933804  0.50206039  0.49602571
   0.46662892  0.58250162  0.51582442
Direct configuration=    37
   0.51560326  0.48288356  0.42517086
   0.58253720  0.51803701  0.44495542
   0.51033990  0.51488520  0.57625729
   0.50879976  0.44197114  0.55176103
   0.60773440  0.48779286  0.54323939
   0.67877477  0.47353633  0.51106810
   0.41684364  0.44145078  0.47926264
   0.44779845  0.37240488  0.45515769
   0.33296135  0.49751639  0.53655662
   0.39197024  0.53899779  0.50488459
   0.49609563  0.56704836  0.47679995
   0.46818069  0.63103272  0.51663419
   0.53904605  0.52611460  0.42198838
   0.53186650  0.47130754  0.58397949
   0.64145410  0.50457157  0.51022907
   0.45981345  0.41659557  0.47133469
   0.35936988  0.50210841  0.49601737
   0.46665124  0.58248910  0.51583307
Direct configuration=    38
   0.51559712  0.48290693  0.42516535
   0.58251155  0.51804477  0.44498609
   0.51034209  0.51487731  0.57629601
   0.50877939  0.44195600  0.55176546
   0.60770409  0.48777694  0.54323666
   0.67867272  0.47344769  0.51094599
   0.41686551  0.44153764  0.47922714
   0.44776804  0.37243479  0.45519612
   0.33315595  0.49748354  0.53662519
   0.39202737  0.53899624  0.50482699
   0.49610247  0.56703747  0.47680763
   0.46816265  0.63101884  0.51663489
   0.53903585  0.52613646  0.42199594
   0.53185358  0.47128869  0.58398140
   0.64141404  0.50455189  0.51021879
   0.45980376  0.41661307  0.47138390
   0.35937998  0.50215715  0.49600114
   0.46666436  0.58247840  0.51583517
Direct configuration=    39
   0.51559643  0.48294755  0.42514094
   0.58247674  0.51805562  0.44502576
   0.51032634  0.51486030  0.57638583
   0.50873149  0.44192616  0.55177735
   0.60766075  0.48775190  0.54323624
   0.67850428  0.47327749  0.51073032
   0.41689674  0.44165850  0.47916942
   0.44771604  0.37246843  0.45525009
   0.33347215  0.49741731  0.53675750
   0.39212427  0.53900958  0.50477046
   0.49610710  0.56703639  0.47681855
   0.46815373  0.63102538  0.51663290
   0.53902362  0.52617957  0.42200106
   0.53184227  0.47125969  0.58396892
   0.64135405  0.50450508  0.51019290
   0.45979063  0.41662980  0.47144868
   0.35939459  0.50224645  0.49598983
   0.46666930  0.58248865  0.51583314
Direct configuration=    40
   0.51561007  0.48301885  0.42506720
   0.58244392  0.51806733  0.44505792
   0.51026114  0.51481820  0.57658154
   0.50863037  0.44187688  0.55180653
   0.60760612  0.48771097  0.54322858
   0.67823276  0.47294968  0.51034791
   0.41694332  0.44180748  0.47906501
   0.44762002  0.37248751  0.45531965
   0.33396933  0.49728895  0.53701480
   0.39226990  0.53907172  0.50475191
   0.49609624  0.56707576  0.47683910
   0.46818184  0.63110129  0.51662002
   0.53901758  0.52625927  0.42199456
   0.53182454  0.47120863  0.58394734
   0.64127916  0.50440837  0.51013581
   0.45977653  0.41662784  0.47151274
   0.35942888  0.50239640  0.49601640
   0.46664879  0.58256870  0.51582285
Direct configuration=    41
   0.51564985  0.48312221  0.42491433
   0.58243997  0.51807432  0.44504561
   0.51011339  0.51473599  0.57691501
   0.50846336  0.44181625  0.55185991
   0.60756242  0.48765507  0.54320009
   0.67787798  0.47243719  0.50979567
   0.41700186  0.44192865  0.47890583
   0.44747389  0.37245349  0.45538161
   0.33459243  0.49709008  0.53741961
   0.39243223  0.53921769  0.50484254
   0.49605091  0.56719616  0.47687409
   0.46828648  0.63130771  0.51658630
   0.53903317  0.52637682  0.42196262
   0.53179329  0.47113227  0.58392922
   0.64122320  0.50425020  0.51003753
   0.45976731  0.41657622  0.47152949
   0.35949614  0.50259482  0.49613194
   0.46658262  0.58277869  0.51579847
Direct configuration=    42
   0.51569910  0.48319796  0.42475477
   0.58248048  0.51807272  0.44497881
   0.50995271  0.51465203  0.57720245
   0.50832372  0.44178881  0.55190646
   0.60757184  0.48761754  0.54315868
   0.67766162  0.47203025  0.50940720
   0.41703273  0.44191629  0.47878434
   0.44736606  0.37236364  0.45538236
   0.33493301  0.49693492  0.53774160
   0.39249463  0.53937681  0.50503549
   0.49598643  0.56734940  0.47690328
   0.46842962  0.63155772  0.51654602
   0.53907028  0.52646375  0.42191627
   0.53176521  0.47107552  0.58392892
   0.64124031  0.50411488  0.50994857