       N       E                     dE             d eps       ncg     rms          rms(c)
DAV:   1     0.516457306623E+03    0.51646E+03   -0.85846E+03    88   0.539E+02
DAV:   2     0.225837457367E+03   -0.29062E+03   -0.27510E+03   128   0.111E+02
DAV:   3    -0.343395049405E+02   -0.26018E+03   -0.25564E+03   112   0.105E+02
DAV:   4    -0.956744957736E+02   -0.61335E+02   -0.61163E+02    84   0.737E+01
DAV:   5    -0.969558593582E+02   -0.12814E+01   -0.12810E+01    88   0.138E+01    0.179E+01
RMM:   6    -0.881096185650E+02    0.88462E+01   -0.34014E+01    96   0.242E+01    0.698E+00
RMM:   7    -0.877350503225E+02    0.37457E+00   -0.19287E+00    96   0.468E+00    0.450E+00
RMM:   8    -0.874889885924E+02    0.24606E+00   -0.49232E-01    96   0.382E+00    0.733E-01
RMM:   9    -0.874589033848E+02    0.30085E-01   -0.16982E-01    96   0.141E+00    0.352E-01
RMM:  10    -0.874571319633E+02    0.17714E-02   -0.39856E-02    94   0.605E-01    0.365E-01
RMM:  11    -0.874585046368E+02   -0.13727E-02   -0.10208E-02    94   0.446E-01    0.101E-01
RMM:  12    -0.874737011616E+02   -0.15197E-01   -0.87828E-03    88   0.370E-01    0.121E-01
RMM:  13    -0.874791195766E+02   -0.54184E-02   -0.23742E-03    92   0.152E-01    0.513E-02
RMM:  14    -0.874863200862E+02   -0.72005E-02   -0.20995E-03    89   0.151E-01    0.338E-02
RMM:  15    -0.874873891558E+02   -0.10691E-02   -0.24067E-04    99   0.469E-02    0.193E-02
RMM:  16    -0.874893572794E+02   -0.19681E-02   -0.28202E-04    86   0.553E-02    0.912E-03
RMM:  17    -0.874900855107E+02   -0.72823E-03   -0.11719E-04    90   0.368E-02    0.154E-02
RMM:  18    -0.874904603192E+02   -0.37481E-03   -0.64574E-05    90   0.290E-02    0.315E-03
RMM:  19    -0.874906588392E+02   -0.19852E-03   -0.19848E-05    92   0.157E-02    0.915E-03
RMM:  20    -0.874907441208E+02   -0.85282E-04   -0.10399E-05    89   0.125E-02    0.128E-03
RMM:  21    -0.874907837214E+02   -0.39601E-04   -0.16887E-06    72   0.507E-03    0.112E-03
RMM:  22    -0.874907967341E+02   -0.13013E-04   -0.33345E-07    68   0.246E-03    0.857E-04
RMM:  23    -0.874908029611E+02   -0.62270E-05   -0.15087E-07    59   0.161E-03    0.346E-04
RMM:  24    -0.874908064675E+02   -0.35064E-05   -0.84682E-08    56   0.133E-03    0.130E-04
RMM:  25    -0.874908076197E+02   -0.11523E-05   -0.66188E-09    47   0.805E-04    0.888E-05
RMM:  26    -0.874908094682E+02   -0.18485E-05   -0.27719E-08    45   0.103E-03    0.148E-04
RMM:  27    -0.874908095630E+02   -0.94770E-07    0.00000E+00    46   0.777E-04
   1 F= -.87490810E+02 E0= -.87490810E+02  d E =-.164610E-13
       N       E                     dE             d eps       ncg     rms          rms(c)
DAV:   1    -0.875097406630E+02   -0.18931E-01   -0.14679E+00    88   0.733E+00    0.108E+00
RMM:   2    -0.874820112265E+02    0.27729E-01   -0.92149E-02    88   0.161E+00    0.668E-01
RMM:   3    -0.874692394711E+02    0.12772E-01   -0.56156E-02    94   0.907E-01    0.199E-01
RMM:   4    -0.874685307688E+02    0.70870E-03   -0.23436E-03    95   0.189E-01    0.101E-01
RMM:   5    -0.874685140820E+02    0.16687E-04   -0.17891E-03    94   0.157E-01    0.451E-02
RMM:   6    -0.874686705127E+02   -0.15643E-03   -0.86192E-04    92   0.105E-01    0.457E-02
RMM:   7    -0.874687924958E+02   -0.12198E-03   -0.23024E-04    90   0.611E-02    0.939E-03
RMM:   8    -0.874692043432E+02   -0.41185E-03   -0.28699E-04    79   0.585E-02    0.335E-02
RMM:   9    -0.874693376905E+02   -0.13335E-03   -0.15459E-04    89   0.440E-02    0.372E-03
RMM:  10    -0.874694759642E+02   -0.13827E-03   -0.27505E-05    90   0.158E-02    0.434E-03
RMM:  11    -0.874695438210E+02   -0.67857E-04   -0.51660E-06    77   0.601E-03    0.214E-03
RMM:  12    -0.874696113643E+02   -0.67543E-04   -0.43543E-06    73   0.512E-03    0.193E-03
RMM:  13    -0.874696523157E+02   -0.40951E-04   -0.31782E-06    71   0.486E-03    0.871E-04
RMM:  14    -0.874696613737E+02   -0.90579E-05   -0.68795E-07    70   0.287E-03    0.558E-04
RMM:  15    -0.874696683952E+02   -0.70216E-05   -0.34999E-07    65   0.205E-03    0.830E-04
RMM:  16    -0.874696744391E+02   -0.60439E-05   -0.20309E-07    58   0.161E-03    0.233E-04
RMM:  17    -0.874696770761E+02   -0.26370E-05   -0.12182E-07    61   0.140E-03    0.176E-04
RMM:  18    -0.874696781142E+02   -0.10381E-05   -0.11214E-08    49   0.821E-04    0.131E-04
RMM:  19    -0.874696797740E+02   -0.16598E-05   -0.81269E-09    41   0.910E-04    0.464E-05
RMM:  20    -0.874696801606E+02   -0.38666E-06   -0.90235E-09    49   0.871E-04
   2 F= -.87469680E+02 E0= -.87469680E+02  d E =-.418741E-11
       N       E                     dE             d eps       ncg     rms          rms(c)
DAV:   1    -0.874533934585E+02    0.16286E-01   -0.14027E+00    80   0.713E+00    0.106E+00
RMM:   2    -0.874258930381E+02    0.27500E-01   -0.84051E-02    87   0.154E+00    0.652E-01
RMM:   3    -0.874132357013E+02    0.12657E-01   -0.54691E-02    94   0.897E-01    0.184E-01
RMM:   4    -0.874126311998E+02    0.60450E-03   -0.21159E-03    96   0.179E-01    0.932E-02
RMM:   5    -0.874126343990E+02   -0.31992E-05   -0.14565E-03    94   0.141E-01    0.421E-02
RMM:   6    -0.874127939581E+02   -0.15956E-03   -0.76238E-04    91   0.973E-02    0.432E-02
RMM:   7    -0.874129183883E+02   -0.12443E-03   -0.21838E-04    91   0.591E-02    0.893E-03
RMM:   8    -0.874133332216E+02   -0.41483E-03   -0.24960E-04    80   0.540E-02    0.312E-02
RMM:   9    -0.874134588769E+02   -0.12566E-03   -0.13943E-04    90   0.412E-02    0.342E-03
RMM:  10    -0.874135935863E+02   -0.13471E-03   -0.25309E-05    90   0.150E-02    0.438E-03
RMM:  11    -0.874136576745E+02   -0.64088E-04   -0.45987E-06    73   0.563E-03    0.223E-03
RMM:  12    -0.874137216320E+02   -0.63958E-04   -0.42067E-06    71   0.503E-03    0.184E-03
RMM:  13    -0.874137588088E+02   -0.37177E-04   -0.26893E-06    70   0.457E-03    0.781E-04
RMM:  14    -0.874137689203E+02   -0.10111E-04   -0.69778E-07    66   0.280E-03    0.571E-04
RMM:  15    -0.874137763064E+02   -0.73861E-05   -0.35727E-07    68   0.209E-03    0.817E-04
RMM:  16    -0.874137810081E+02   -0.47016E-05   -0.15733E-07    59   0.139E-03    0.369E-04
RMM:  17    -0.874137842527E+02   -0.32447E-05   -0.18743E-07    63   0.169E-03    0.322E-04
RMM:  18    -0.874137848873E+02   -0.63461E-06   -0.10699E-08    49   0.776E-04
   3 F= -.87413785E+02 E0= -.87413785E+02  d E =-.416920E-10
       N       E                     dE             d eps       ncg     rms          rms(c)
DAV:   1    -0.873839149471E+02    0.29869E-01   -0.12959E+00    80   0.681E+00    0.102E+00
RMM:   2    -0.873569779480E+02    0.26937E-01   -0.73229E-02    86   0.144E+00    0.628E-01
RMM:   3    -0.873443442841E+02    0.12634E-01   -0.53190E-02    94   0.886E-01    0.160E-01
RMM:   4    -0.873438984028E+02    0.44588E-03   -0.17879E-03    96   0.163E-01    0.843E-02
RMM:   5    -0.873439298884E+02   -0.31486E-04   -0.11561E-03    93   0.127E-01    0.389E-02
RMM:   6    -0.873440856593E+02   -0.15577E-03   -0.66545E-04    91   0.898E-02    0.398E-02
RMM:   7    -0.873442122668E+02   -0.12661E-03   -0.19207E-04    89   0.559E-02    0.863E-03
RMM:   8    -0.873446290038E+02   -0.41674E-03   -0.21752E-04    79   0.504E-02    0.287E-02
RMM:   9    -0.873447465937E+02   -0.11759E-03   -0.13024E-04    91   0.394E-02    0.286E-03
RMM:  10    -0.873448746795E+02   -0.12809E-03   -0.22069E-05    87   0.137E-02    0.478E-03
RMM:  11    -0.873449355697E+02   -0.60890E-04   -0.47137E-06    73   0.576E-03    0.235E-03
RMM:  12    -0.873449921148E+02   -0.56545E-04   -0.35649E-06    70   0.477E-03    0.169E-03
RMM:  13    -0.873450252974E+02   -0.33183E-04   -0.24808E-06    71   0.448E-03    0.576E-04
RMM:  14    -0.873450360313E+02   -0.10734E-04   -0.61475E-07    66   0.255E-03    0.641E-04
RMM:  15    -0.873450445272E+02   -0.84959E-05   -0.29036E-07    66   0.178E-03    0.599E-04
RMM:  16    -0.873450479457E+02   -0.34185E-05   -0.14930E-07    62   0.135E-03    0.171E-04
RMM:  17    -0.873450503902E+02   -0.24445E-05   -0.90897E-08    60   0.126E-03    0.209E-04
RMM:  18    -0.873450514002E+02   -0.10099E-05   -0.10675E-08    50   0.817E-04    0.156E-04
RMM:  19    -0.873450523700E+02   -0.96981E-06    0.00000E+00    41   0.824E-04
   4 F= -.87345052E+02 E0= -.87345052E+02  d E =-.959495E-13
       N       E                     dE             d eps       ncg     rms          rms(c)
DAV:   1    -0.873290422032E+02    0.16009E-01   -0.12054E+00    76   0.653E+00    0.979E-01
RMM:   2    -0.873022515842E+02    0.26791E-01   -0.64631E-02    86   0.136E+00    0.610E-01
RMM:   3    -0.872893523919E+02    0.12899E-01   -0.55304E-02    94   0.905E-01    0.141E-01
RMM:   4    -0.872890462335E+02    0.30616E-03   -0.14052E-03    96   0.147E-01    0.786E-02
RMM:   5    -0.872891225663E+02   -0.76333E-04   -0.10593E-03    92   0.129E-01    0.384E-02
RMM:   6    -0.872892453104E+02   -0.12274E-03   -0.60878E-04    93   0.889E-02    0.352E-02
RMM:   7    -0.872893857269E+02   -0.14042E-03   -0.15081E-04    88   0.514E-02    0.851E-03
RMM:   8    -0.872897890515E+02   -0.40332E-03   -0.20297E-04    79   0.506E-02    0.279E-02
RMM:   9    -0.872899107157E+02   -0.12166E-03   -0.13807E-04    90   0.416E-02    0.282E-03
RMM:  10    -0.872900357618E+02   -0.12505E-03   -0.21102E-05    87   0.134E-02    0.535E-03
RMM:  11    -0.872900925741E+02   -0.56812E-04   -0.48693E-06    74   0.584E-03    0.283E-03
RMM:  12    -0.872901406587E+02   -0.48085E-04   -0.32829E-06    71   0.501E-03    0.134E-03
RMM:  13    -0.872901705142E+02   -0.29856E-04   -0.19556E-06    68   0.413E-03    0.550E-04
RMM:  14    -0.872901806130E+02   -0.10099E-04   -0.73893E-07    68   0.268E-03    0.786E-04
RMM:  15    -0.872901877833E+02   -0.71703E-05   -0.22699E-07    61   0.161E-03    0.569E-04
RMM:  16    -0.872901920944E+02   -0.43112E-05   -0.21277E-07    65   0.172E-03    0.114E-04
RMM:  17    -0.872901938073E+02   -0.17129E-05   -0.32125E-08    52   0.925E-04    0.907E-05
RMM:  18    -0.872901952322E+02   -0.14248E-05   -0.19247E-08    48   0.919E-04    0.851E-05
RMM:  19    -0.872901955927E+02   -0.36050E-06    0.00000E+00    46   0.802E-04
   5 F= -.87290196E+02 E0= -.87290196E+02  d E =-.808097E-12
       N       E                     dE             d eps       ncg     rms          rms(c)
DAV:   1    -0.873075742886E+02   -0.17379E-01   -0.11853E+00    76   0.648E+00    0.979E-01
RMM:   2    -0.872797909200E+02    0.27783E-01   -0.64492E-02    85   0.136E+00    0.613E-01
RMM:   3    -0.872661641677E+02    0.13627E-01   -0.58872E-02    94   0.932E-01    0.131E-01
RMM:   4    -0.872659262793E+02    0.23789E-03   -0.12576E-03    96   0.143E-01    0.751E-02
RMM:   5    -0.872660465282E+02   -0.12025E-03   -0.10489E-03    91   0.134E-01    0.402E-02
RMM:   6    -0.872661326769E+02   -0.86149E-04   -0.55946E-04    93   0.883E-02    0.300E-02
RMM:   7    -0.872662903468E+02   -0.15767E-03   -0.11435E-04    85   0.454E-02    0.849E-03
RMM:   8    -0.872666565447E+02   -0.36620E-03   -0.17118E-04    78   0.485E-02    0.260E-02
RMM:   9    -0.872667973492E+02   -0.14080E-03   -0.12085E-04    89   0.389E-02    0.274E-03
RMM:  10    -0.872669236000E+02   -0.12625E-03   -0.28431E-05    90   0.161E-02    0.662E-03
RMM:  11    -0.872669787063E+02   -0.55106E-04   -0.47917E-06    76   0.718E-03    0.293E-03
RMM:  12    -0.872670210540E+02   -0.42348E-04   -0.35830E-06    72   0.571E-03    0.972E-04
RMM:  13    -0.872670490092E+02   -0.27955E-04   -0.12839E-06    66   0.348E-03    0.666E-04
RMM:  14    -0.872670593641E+02   -0.10355E-04   -0.85712E-07    71   0.317E-03    0.845E-04
RMM:  15    -0.872670654979E+02   -0.61339E-05   -0.26414E-07    64   0.171E-03    0.776E-04
RMM:  16    -0.872670696998E+02   -0.42019E-05   -0.20526E-07    65   0.169E-03    0.165E-04
RMM:  17    -0.872670713207E+02   -0.16208E-05   -0.52457E-08    57   0.100E-03    0.636E-05
RMM:  18    -0.872670727070E+02   -0.13863E-05   -0.19474E-08    48   0.993E-04    0.134E-04
RMM:  19    -0.872670729025E+02   -0.19550E-06   -0.59450E-09    48   0.880E-04
   6 F= -.87267073E+02 E0= -.87267073E+02  d E =-.191112E-11
       N       E                     dE             d eps       ncg     rms          rms(c)
DAV:   1    -0.873194711068E+02   -0.52398E-01   -0.12505E+00    76   0.669E+00    0.102E+00
RMM:   2    -0.872894286830E+02    0.30042E-01   -0.73248E-02    84   0.145E+00    0.640E-01
RMM:   3    -0.872746775470E+02    0.14751E-01   -0.63503E-02    94   0.967E-01    0.134E-01
RMM:   4    -0.872744340841E+02    0.24346E-03   -0.13548E-03    96   0.150E-01    0.734E-02
RMM:   5    -0.872745603525E+02   -0.12627E-03   -0.97599E-04    91   0.125E-01    0.404E-02
RMM:   6    -0.872746596607E+02   -0.99308E-04   -0.61046E-04    93   0.906E-02    0.331E-02
RMM:   7    -0.872748131809E+02   -0.15352E-03   -0.14574E-04    85   0.506E-02    0.885E-03
RMM:   8    -0.872751696887E+02   -0.35651E-03   -0.16124E-04    78   0.459E-02    0.252E-02
RMM:   9    -0.872753103337E+02   -0.14064E-03   -0.11938E-04    88   0.376E-02    0.273E-03
RMM:  10    -0.872754278467E+02   -0.11751E-03   -0.24902E-05    90   0.147E-02    0.603E-03
RMM:  11    -0.872754908736E+02   -0.63027E-04   -0.62700E-06    78   0.810E-03    0.192E-03
RMM:  12    -0.872755308797E+02   -0.40006E-04   -0.26394E-06    70   0.457E-03    0.953E-04
RMM:  13    -0.872755604458E+02   -0.29566E-04   -0.15380E-06    66   0.363E-03    0.702E-04
RMM:  14    -0.872755696149E+02   -0.91691E-05   -0.61179E-07    68   0.254E-03    0.518E-04
RMM:  15    -0.872755758613E+02   -0.62465E-05   -0.29772E-07    68   0.189E-03    0.709E-04
RMM:  16    -0.872755796886E+02   -0.38273E-05   -0.12926E-07    61   0.137E-03    0.251E-04
RMM:  17    -0.872755816441E+02   -0.19554E-05   -0.13546E-07    69   0.153E-03    0.308E-04
RMM:  18    -0.872755820598E+02   -0.41576E-06   -0.51853E-09    49   0.675E-04
   7 F= -.87275582E+02 E0= -.87275582E+02  d E =-.123362E-11
       N       E                     dE             d eps       ncg     rms          rms(c)
DAV:   1    -0.873479136842E+02   -0.72332E-01   -0.13686E+00    76   0.703E+00    0.108E+00
RMM:   2    -0.873150381528E+02    0.32876E-01   -0.86764E-02    83   0.157E+00    0.676E-01
RMM:   3    -0.872989843782E+02    0.16054E-01   -0.68620E-02    94   0.101E+00    0.143E-01
RMM:   4    -0.872986983642E+02    0.28601E-03   -0.15828E-03    96   0.163E-01    0.745E-02
RMM:   5    -0.872988199497E+02   -0.12159E-03   -0.94033E-04    91   0.122E-01    0.409E-02
RMM:   6    -0.872989479650E+02   -0.12802E-03   -0.69493E-04    93   0.975E-02    0.381E-02
RMM:   7    -0.872990916654E+02   -0.14370E-03   -0.19708E-04    85   0.585E-02    0.929E-03
RMM:   8    -0.872994464702E+02   -0.35480E-03   -0.17422E-04    78   0.476E-02    0.268E-02
RMM:   9    -0.872995854470E+02   -0.13898E-03   -0.12929E-04    88   0.400E-02    0.298E-03
RMM:  10    -0.872997014389E+02   -0.11599E-03   -0.23466E-05    89   0.144E-02    0.502E-03
RMM:  11    -0.872997689801E+02   -0.67541E-04   -0.58216E-06    76   0.745E-03    0.179E-03
RMM:  12    -0.872998089413E+02   -0.39961E-04   -0.24794E-06    71   0.415E-03    0.114E-03
RMM:  13    -0.872998417903E+02   -0.32849E-04   -0.19310E-06    67   0.391E-03    0.693E-04
RMM:  14    -0.872998493959E+02   -0.76057E-05   -0.55039E-07    71   0.248E-03    0.569E-04
RMM:  15    -0.872998553471E+02   -0.59512E-05   -0.23554E-07    64   0.165E-03    0.649E-04
RMM:  16    -0.872998596254E+02   -0.42783E-05   -0.13948E-07    63   0.143E-03    0.190E-04
RMM:  17    -0.872998614821E+02   -0.18567E-05   -0.89981E-08    65   0.128E-03    0.212E-04
RMM:  18    -0.872998622625E+02   -0.78040E-06   -0.54008E-09    48   0.696E-04
   8 F= -.87299862E+02 E0= -.87299862E+02  d E =-.373196E-12
       N       E                     dE             d eps       ncg     rms          rms(c)
DAV:   1    -0.873706537627E+02   -0.70792E-01   -0.14819E+00    76   0.734E+00    0.113E+00
RMM:   2    -0.873354594440E+02    0.35194E-01   -0.99244E-02    83   0.168E+00    0.708E-01
RMM:   3    -0.873182352956E+02    0.17224E-01   -0.73015E-02    94   0.104E+00    0.152E-01
RMM:   4    -0.873179188957E+02    0.31640E-03   -0.17850E-03    96   0.174E-01    0.768E-02
RMM:   5    -0.873180386908E+02   -0.11980E-03   -0.94134E-04    92   0.123E-01    0.419E-02
RMM:   6    -0.873181841446E+02   -0.14545E-03   -0.72444E-04    93   0.102E-01    0.398E-02
RMM:   7    -0.873183255892E+02   -0.14144E-03   -0.21531E-04    85   0.615E-02    0.947E-03
RMM:   8    -0.873186759469E+02   -0.35036E-03   -0.18119E-04    79   0.491E-02    0.277E-02
RMM:   9    -0.873188239365E+02   -0.14799E-03   -0.13195E-04    89   0.414E-02    0.330E-03
RMM:  10    -0.873189434755E+02   -0.11954E-03   -0.25380E-05    87   0.154E-02    0.499E-03
RMM:  11    -0.873190148181E+02   -0.71343E-04   -0.66562E-06    76   0.777E-03    0.194E-03
RMM:  12    -0.873190498944E+02   -0.35076E-04   -0.21325E-06    72   0.393E-03    0.126E-03
RMM:  13    -0.873190860106E+02   -0.36116E-04   -0.22573E-06    68   0.411E-03    0.615E-04
RMM:  14    -0.873190947837E+02   -0.87731E-05   -0.60682E-07    72   0.261E-03    0.654E-04
RMM:  15    -0.873191010819E+02   -0.62982E-05   -0.24418E-07    64   0.163E-03    0.655E-04
RMM:  16    -0.873191052970E+02   -0.42151E-05   -0.15101E-07    63   0.148E-03    0.175E-04
RMM:  17    -0.873191073244E+02   -0.20274E-05   -0.85447E-08    63   0.129E-03    0.210E-04
RMM:  18    -0.873191078803E+02   -0.55590E-06   -0.56167E-09    47   0.778E-04
   9 F= -.87319108E+02 E0= -.87319108E+02  d E =-.622258E-13
       N       E                     dE             d eps       ncg     rms          rms(c)
DAV:   1    -0.873718207894E+02   -0.52713E-01   -0.15427E+00    84   0.751E+00    0.115E+00
RMM:   2    -0.873355643086E+02    0.36256E-01   -0.10644E-01    85   0.174E+00    0.724E-01
RMM:   3    -0.873175705556E+02    0.17994E-01   -0.75653E-02    94   0.106E+00    0.153E-01
RMM:   4    -0.873172512641E+02    0.31929E-03   -0.18686E-03    96   0.177E-01    0.780E-02
RMM:   5    -0.873173694196E+02   -0.11816E-03   -0.94134E-04    93   0.123E-01    0.424E-02
RMM:   6    -0.873175195425E+02   -0.15012E-03   -0.71053E-04    93   0.102E-01    0.393E-02
RMM:   7    -0.873176648843E+02   -0.14534E-03   -0.21274E-04    85   0.614E-02    0.967E-03
RMM:   8    -0.873180287043E+02   -0.36382E-03   -0.19371E-04    82   0.505E-02    0.287E-02
RMM:   9    -0.873181723127E+02   -0.14361E-03   -0.13431E-04    87   0.425E-02    0.365E-03
RMM:  10    -0.873182709896E+02   -0.98677E-04   -0.22342E-05    91   0.151E-02    0.489E-03
RMM:  11    -0.873183650088E+02   -0.94019E-04   -0.80466E-06    74   0.799E-03    0.245E-03
RMM:  12    -0.873183970699E+02   -0.32061E-04   -0.23201E-06    73   0.420E-03    0.138E-03
RMM:  13    -0.873184408417E+02   -0.43772E-04   -0.28290E-06    71   0.450E-03    0.525E-04
RMM:  14    -0.873184500542E+02   -0.92125E-05   -0.55980E-07    68   0.242E-03    0.547E-04
RMM:  15    -0.873184588978E+02   -0.88436E-05   -0.32907E-07    67   0.190E-03    0.594E-04
RMM:  16    -0.873184622851E+02   -0.33873E-05   -0.12206E-07    59   0.128E-03    0.281E-04
RMM:  17    -0.873184651707E+02   -0.28855E-05   -0.14079E-07    64   0.155E-03    0.301E-04
RMM:  18    -0.873184655044E+02   -0.33376E-06   -0.68601E-09    48   0.725E-04
  10 F= -.87318466E+02 E0= -.87318466E+02  d E =-.991810E-14
       N       E                     dE             d eps       ncg     rms          rms(c)
DAV:   1    -0.873473811617E+02   -0.28916E-01   -0.15312E+00    84   0.750E+00    0.114E+00
RMM:   2    -0.873114550562E+02    0.35926E-01   -0.10685E-01    84   0.174E+00    0.722E-01
RMM:   3    -0.872932254294E+02    0.18230E-01   -0.75932E-02    94   0.107E+00    0.149E-01
RMM:   4    -0.872929291438E+02    0.29629E-03   -0.18279E-03    96   0.174E-01    0.771E-02
RMM:   5    -0.872930457090E+02   -0.11657E-03   -0.93047E-04    93   0.122E-01    0.424E-02
RMM:   6    -0.872931904979E+02   -0.14479E-03   -0.67603E-04    93   0.998E-02    0.375E-02
RMM:   7    -0.872933459448E+02   -0.15545E-03   -0.20557E-04    85   0.601E-02    0.101E-02
RMM:   8    -0.872937323506E+02   -0.38641E-03   -0.19881E-04    82   0.503E-02    0.289E-02
RMM:   9    -0.872938670238E+02   -0.13467E-03   -0.13662E-04    90   0.432E-02    0.357E-03
RMM:  10    -0.872939755925E+02   -0.10857E-03   -0.22065E-05    88   0.150E-02    0.497E-03
RMM:  11    -0.872940694254E+02   -0.93833E-04   -0.89404E-06    75   0.779E-03    0.293E-03
RMM:  12    -0.872940977824E+02   -0.28357E-04   -0.25103E-06    75   0.437E-03    0.148E-03
RMM:  13    -0.872941408702E+02   -0.43088E-04   -0.30347E-06    74   0.494E-03    0.655E-04
RMM:  14    -0.872941515763E+02   -0.10706E-04   -0.54720E-07    67   0.235E-03    0.640E-04
RMM:  15    -0.872941608302E+02   -0.92540E-05   -0.31160E-07    66   0.182E-03    0.383E-04
RMM:  16    -0.872941648236E+02   -0.39934E-05   -0.12301E-07    60   0.123E-03    0.222E-04
RMM:  17    -0.872941673108E+02   -0.24872E-05   -0.65679E-08    55   0.116E-03    0.760E-05
RMM:  18    -0.872941682687E+02   -0.95789E-06   -0.31163E-08    55   0.996E-04
  11 F= -.87294168E+02 E0= -.87294168E+02  d E =-.383111E-10
       N       E                     dE             d eps       ncg     rms          rms(c)
DAV:   1    -0.873044373562E+02   -0.10270E-01   -0.14563E+00    84   0.732E+00    0.111E+00
RMM:   2    -0.872697884851E+02    0.34649E-01   -0.10059E-01    84   0.169E+00    0.703E-01
RMM:   3    -0.872518573630E+02    0.17931E-01   -0.73716E-02    94   0.105E+00    0.138E-01
RMM:   4    -0.872516090688E+02    0.24829E-03   -0.16715E-03    96   0.164E-01    0.736E-02
RMM:   5    -0.872517203398E+02   -0.11127E-03   -0.85675E-04    93   0.116E-01    0.410E-02
RMM:   6    -0.872518545620E+02   -0.13422E-03   -0.60832E-04    93   0.941E-02    0.344E-02
RMM:   7    -0.872520244878E+02   -0.16993E-03   -0.19064E-04    85   0.572E-02    0.109E-02
RMM:   8    -0.872524417031E+02   -0.41722E-03   -0.19494E-04    81   0.481E-02    0.279E-02
RMM:   9    -0.872525620591E+02   -0.12036E-03   -0.13213E-04    90   0.429E-02    0.332E-03
RMM:  10    -0.872526905188E+02   -0.12846E-03   -0.26472E-05    88   0.153E-02    0.579E-03
RMM:  11    -0.872527694812E+02   -0.78962E-04   -0.72701E-06    75   0.757E-03    0.312E-03
RMM:  12    -0.872527983246E+02   -0.28843E-04   -0.22724E-06    75   0.457E-03    0.145E-03
RMM:  13    -0.872528420879E+02   -0.43763E-04   -0.30971E-06    73   0.510E-03    0.742E-04
RMM:  14    -0.872528529459E+02   -0.10858E-04   -0.57008E-07    68   0.242E-03    0.756E-04
RMM:  15    -0.872528610670E+02   -0.81211E-05   -0.27741E-07    62   0.171E-03    0.417E-04
RMM:  16    -0.872528656290E+02   -0.45621E-05   -0.16745E-07    67   0.145E-03    0.130E-04
RMM:  17    -0.872528680969E+02   -0.24679E-05   -0.51818E-08    54   0.103E-03    0.740E-05
RMM:  18    -0.872528693099E+02   -0.12129E-05   -0.23614E-08    53   0.948E-04    0.104E-04
RMM:  19    -0.872528698034E+02   -0.49349E-06    0.00000E+00    47   0.815E-04
  12 F= -.87252870E+02 E0= -.87252870E+02  d E =-.270499E-10
       N       E                     dE             d eps       ncg     rms          rms(c)
DAV:   1    -0.872569483481E+02   -0.40790E-02   -0.13438E+00    72   0.698E+00    0.106E+00
RMM:   2    -0.872239670274E+02    0.32981E-01   -0.89961E-02    88   0.160E+00    0.671E-01
RMM:   3    -0.872067732814E+02    0.17194E-01   -0.68784E-02    93   0.102E+00    0.121E-01
RMM:   4    -0.872066040393E+02    0.16924E-03   -0.14347E-03    96   0.150E-01    0.667E-02
RMM:   5    -0.872067018063E+02   -0.97767E-04   -0.66643E-04    93   0.100E-01    0.373E-02
RMM:   6    -0.872068297630E+02   -0.12796E-03   -0.50230E-04    93   0.837E-02    0.298E-02
RMM:   7    -0.872070173430E+02   -0.18758E-03   -0.16906E-04    85   0.527E-02    0.120E-02
RMM:   8    -0.872074646112E+02   -0.44727E-03   -0.17148E-04    77   0.427E-02    0.240E-02
RMM:   9    -0.872075709617E+02   -0.10635E-03   -0.11417E-04    92   0.391E-02    0.358E-03
RMM:  10    -0.872077320482E+02   -0.16109E-03   -0.26601E-05    84   0.141E-02    0.590E-03
RMM:  11    -0.872077862034E+02   -0.54155E-04   -0.63084E-06    82   0.770E-03    0.201E-03
RMM:  12    -0.872078225121E+02   -0.36309E-04   -0.20310E-06    72   0.426E-03    0.903E-04
RMM:  13    -0.872078574854E+02   -0.34973E-04   -0.25548E-06    72   0.422E-03    0.723E-04
RMM:  14    -0.872078684741E+02   -0.10989E-04   -0.46024E-07    66   0.212E-03    0.674E-04
RMM:  15    -0.872078759362E+02   -0.74621E-05   -0.24995E-07    65   0.175E-03    0.207E-04
RMM:  16    -0.872078796967E+02   -0.37605E-05   -0.13444E-07    63   0.139E-03    0.155E-04
RMM:  17    -0.872078808778E+02   -0.11811E-05   -0.21575E-08    51   0.859E-04    0.143E-04
RMM:  18    -0.872078824065E+02   -0.15287E-05   -0.61191E-09    41   0.848E-04    0.599E-05
RMM:  19    -0.872078827766E+02   -0.37019E-06   -0.32851E-09    47   0.841E-04
  13 F= -.87207883E+02 E0= -.87207883E+02  d E =-.325028E-10
       N       E                     dE             d eps       ncg     rms          rms(c)
DAV:   1    -0.872204283856E+02   -0.12546E-01   -0.12248E+00    72   0.661E+00    0.100E+00
RMM:   2    -0.871894310674E+02    0.30997E-01   -0.79279E-02    85   0.150E+00    0.635E-01
RMM:   3    -0.871731782914E+02    0.16253E-01   -0.63121E-02    93   0.969E-01    0.106E-01
RMM:   4    -0.871730574064E+02    0.12089E-03   -0.12491E-03    96   0.137E-01    0.608E-02
RMM:   5    -0.871731350474E+02   -0.77641E-04   -0.53283E-04    92   0.874E-02    0.339E-02
RMM:   6    -0.871732579697E+02   -0.12292E-03   -0.43126E-04    93   0.755E-02    0.261E-02
RMM:   7    -0.871734595743E+02   -0.20160E-03   -0.14794E-04    85   0.483E-02    0.127E-02
RMM:   8    -0.871739291760E+02   -0.46960E-03   -0.15357E-04    77   0.383E-02    0.199E-02
RMM:   9    -0.871740316563E+02   -0.10248E-03   -0.96361E-05    93   0.348E-02    0.453E-03
RMM:  10    -0.871741899376E+02   -0.15828E-03   -0.21774E-05    84   0.121E-02    0.575E-03
RMM:  11    -0.871742479933E+02   -0.58056E-04   -0.72076E-06    83   0.842E-03    0.132E-03
RMM:  12    -0.871742908491E+02   -0.42856E-04   -0.22957E-06    73   0.414E-03    0.700E-04
RMM:  13    -0.871743220903E+02   -0.31241E-04   -0.17185E-06    70   0.348E-03    0.563E-04
RMM:  14    -0.871743344445E+02   -0.12354E-04   -0.52456E-07    65   0.208E-03    0.427E-04
RMM:  15    -0.871743419328E+02   -0.74883E-05   -0.25313E-07    63   0.170E-03    0.123E-04
RMM:  16    -0.871743453492E+02   -0.34165E-05   -0.11681E-07    62   0.129E-03    0.112E-04
RMM:  17    -0.871743465427E+02   -0.11934E-05   -0.14681E-08    48   0.833E-04    0.914E-05
RMM:  18    -0.871743478469E+02   -0.13042E-05   -0.61472E-09    40   0.849E-04    0.384E-05
RMM:  19    -0.871743483156E+02   -0.46863E-06   -0.91211E-09    46   0.846E-04
  14 F= -.87174348E+02 E0= -.87174348E+02  d E =-.506751E-14
       N       E                     dE             d eps       ncg     rms          rms(c)
DAV:   1    -0.872075080489E+02   -0.33160E-01   -0.11341E+00    72   0.630E+00    0.959E-01
RMM:   2    -0.871782123768E+02    0.29296E-01   -0.70645E-02    87   0.141E+00    0.602E-01
RMM:   3    -0.871629576018E+02    0.15255E-01   -0.56782E-02    93   0.914E-01    0.977E-02
RMM:   4    -0.871628400643E+02    0.11754E-03   -0.12038E-03    97   0.130E-01    0.570E-02
RMM:   5    -0.871628834890E+02   -0.43425E-04   -0.42556E-04    92   0.781E-02    0.304E-02
RMM:   6    -0.871630111389E+02   -0.12765E-03   -0.36209E-04    92   0.674E-02    0.232E-02
RMM:   7    -0.871632194517E+02   -0.20831E-03   -0.12398E-04    86   0.438E-02    0.122E-02
RMM:   8    -0.871637068271E+02   -0.48738E-03   -0.14382E-04    76   0.363E-02    0.166E-02
RMM:   9    -0.871638190791E+02   -0.11225E-03   -0.88024E-05    94   0.331E-02    0.598E-03
RMM:  10    -0.871639658957E+02   -0.14682E-03   -0.16304E-05    82   0.105E-02    0.444E-03
RMM:  11    -0.871640358661E+02   -0.69970E-04   -0.78295E-06    83   0.864E-03    0.126E-03
RMM:  12    -0.871640829804E+02   -0.47114E-04   -0.27863E-06    75   0.439E-03    0.618E-04
RMM:  13    -0.871641111150E+02   -0.28135E-04   -0.13354E-06    69   0.301E-03    0.474E-04
RMM:  14    -0.871641244190E+02   -0.13304E-04   -0.55348E-07    65   0.211E-03    0.250E-04
RMM:  15    -0.871641321923E+02   -0.77732E-05   -0.25868E-07    61   0.166E-03    0.121E-04
RMM:  16    -0.871641351500E+02   -0.29577E-05   -0.10175E-07    61   0.118E-03    0.684E-05
RMM:  17    -0.871641366828E+02   -0.15328E-05   -0.20777E-08    49   0.833E-04    0.539E-05
RMM:  18    -0.871641377460E+02   -0.10632E-05    0.00000E+00    42   0.809E-04    0.369E-05
RMM:  19    -0.871641382006E+02   -0.45462E-06   -0.58028E-09    46   0.850E-04
  15 F= -.87164138E+02 E0= -.87164138E+02  d E =-.115868E-13
       N       E                     dE             d eps       ncg     rms          rms(c)
DAV:   1    -0.872225613317E+02   -0.58424E-01   -0.10942E+00    76   0.614E+00    0.936E-01
RMM:   2    -0.871945012227E+02    0.28060E-01   -0.66206E-02    88   0.136E+00    0.580E-01
RMM:   3    -0.871801552256E+02    0.14346E-01   -0.51566E-02    93   0.867E-01    0.102E-01
RMM:   4    -0.871799623152E+02    0.19291E-03   -0.13032E-03    95   0.135E-01    0.572E-02
RMM:   5    -0.871799653350E+02   -0.30198E-05   -0.46827E-04    94   0.812E-02    0.303E-02
RMM:   6    -0.871801263079E+02   -0.16097E-03   -0.47370E-04    92   0.770E-02    0.305E-02
RMM:   7    -0.871803055032E+02   -0.17920E-03   -0.19561E-04    87   0.565E-02    0.134E-02
RMM:   8    -0.871807954656E+02   -0.48996E-03   -0.14735E-04    79   0.381E-02    0.201E-02
RMM:   9    -0.871809186129E+02   -0.12315E-03   -0.10142E-04    93   0.364E-02    0.496E-03
RMM:  10    -0.871810760844E+02   -0.15747E-03   -0.19027E-05    86   0.116E-02    0.575E-03
RMM:  11    -0.871811419968E+02   -0.65912E-04   -0.80304E-06    87   0.927E-03    0.145E-03
RMM:  12    -0.871812002130E+02   -0.58216E-04   -0.33562E-06    75   0.490E-03    0.723E-04
RMM:  13    -0.871812320024E+02   -0.31789E-04   -0.12847E-06    70   0.305E-03    0.498E-04
RMM:  14    -0.871812481355E+02   -0.16133E-04   -0.71588E-07    63   0.237E-03    0.330E-04
RMM:  15    -0.871812582007E+02   -0.10065E-04   -0.34079E-07    62   0.188E-03    0.164E-04
RMM:  16    -0.871812609475E+02   -0.27469E-05   -0.11996E-07    59   0.121E-03    0.709E-05
RMM:  17    -0.871812629350E+02   -0.19875E-05   -0.37870E-08    51   0.968E-04    0.864E-05
RMM:  18    -0.871812638736E+02   -0.93858E-06   -0.34795E-09    47   0.815E-04
  16 F= -.87181264E+02 E0= -.87181264E+02  d E =-.225414E-13
       N       E                     dE             d eps       ncg     rms          rms(c)
DAV:   1    -0.872593068237E+02   -0.78044E-01   -0.11077E+00    84   0.617E+00    0.934E-01
RMM:   2    -0.872321832917E+02    0.27124E-01   -0.67393E-02    86   0.137E+00    0.574E-01
RMM:   3    -0.872185105067E+02    0.13673E-01   -0.48251E-02    93   0.835E-01    0.120E-01
RMM:   4    -0.872181734781E+02    0.33703E-03   -0.15784E-03    96   0.148E-01    0.624E-02
RMM:   5    -0.872181406899E+02    0.32788E-04   -0.60331E-04    95   0.918E-02    0.326E-02
RMM:   6    -0.872183153814E+02   -0.17469E-03   -0.58820E-04    90   0.855E-02    0.369E-02
RMM:   7    -0.872184743270E+02   -0.15895E-03   -0.26702E-04    90   0.656E-02    0.136E-02
RMM:   8    -0.872189573626E+02   -0.48304E-03   -0.14801E-04    79   0.392E-02    0.223E-02
RMM:   9    -0.872191061177E+02   -0.14876E-03   -0.11597E-04    92   0.385E-02    0.474E-03
RMM:  10    -0.872192633175E+02   -0.15720E-03   -0.19660E-05    86   0.119E-02    0.574E-03
RMM:  11    -0.872193427460E+02   -0.79429E-04   -0.97988E-06    87   0.102E-02    0.163E-03
RMM:  12    -0.872194038403E+02   -0.61094E-04   -0.36573E-06    77   0.504E-03    0.739E-04
RMM:  13    -0.872194381928E+02   -0.34352E-04   -0.13971E-06    70   0.315E-03    0.525E-04
RMM:  14    -0.872194541941E+02   -0.16001E-04   -0.73544E-07    63   0.241E-03    0.282E-04
RMM:  15    -0.872194642089E+02   -0.10015E-04   -0.35843E-07    64   0.188E-03    0.224E-04
RMM:  16    -0.872194679458E+02   -0.37369E-05   -0.13304E-07    60   0.125E-03    0.898E-05
RMM:  17    -0.872194701260E+02   -0.21802E-05   -0.64998E-08    54   0.109E-03    0.142E-04
RMM:  18    -0.872194709765E+02   -0.85049E-06   -0.82614E-09    47   0.766E-04
  17 F= -.87219471E+02 E0= -.87219471E+02  d E =-.460572E-13
       N       E                     dE             d eps       ncg     rms          rms(c)
DAV:   1    -0.873026239979E+02   -0.83154E-01   -0.11562E+00    84   0.633E+00    0.947E-01
RMM:   2    -0.872763280688E+02    0.26296E-01   -0.73216E-02    87   0.142E+00    0.582E-01
RMM:   3    -0.872630880326E+02    0.13240E-01   -0.46134E-02    93   0.816E-01    0.141E-01
RMM:   4    -0.872625622912E+02    0.52574E-03   -0.19833E-03    96   0.166E-01    0.715E-02
RMM:   5    -0.872624953217E+02    0.66970E-04   -0.84080E-04    95   0.109E-01    0.356E-02
RMM:   6    -0.872626712746E+02   -0.17595E-03   -0.67458E-04    89   0.921E-02    0.405E-02
RMM:   7    -0.872628200341E+02   -0.14876E-03   -0.29585E-04    90   0.686E-02    0.126E-02
RMM:   8    -0.872633028191E+02   -0.48278E-03   -0.15598E-04    81   0.409E-02    0.235E-02
RMM:   9    -0.872634672644E+02   -0.16445E-03   -0.12866E-04    91   0.404E-02    0.518E-03
RMM:  10    -0.872636255119E+02   -0.15825E-03   -0.18250E-05    85   0.116E-02    0.456E-03
RMM:  11    -0.872637193629E+02   -0.93851E-04   -0.10454E-05    82   0.101E-02    0.181E-03
RMM:  12    -0.872637795591E+02   -0.60196E-04   -0.38456E-06    76   0.523E-03    0.707E-04
RMM:  13    -0.872638147225E+02   -0.35163E-04   -0.15541E-06    69   0.329E-03    0.548E-04
RMM:  14    -0.872638308030E+02   -0.16080E-04   -0.77377E-07    64   0.255E-03    0.286E-04
RMM:  15    -0.872638400424E+02   -0.92394E-05   -0.35543E-07    64   0.187E-03    0.189E-04
RMM:  16    -0.872638441930E+02   -0.41506E-05   -0.13654E-07    57   0.131E-03    0.102E-04
RMM:  17    -0.872638459400E+02   -0.17470E-05   -0.48158E-08    55   0.100E-03    0.651E-05
RMM:  18    -0.872638472138E+02   -0.12737E-05   -0.80844E-09    44   0.854E-04    0.333E-05
RMM:  19    -0.872638478468E+02   -0.63308E-06   -0.57750E-09    43   0.875E-04
  18 F= -.87263848E+02 E0= -.87263848E+02  d E =-.113774E-12
       N       E                     dE             d eps       ncg     rms          rms(c)
DAV:   1    -0.873344570732E+02   -0.70610E-01   -0.12066E+00    84   0.651E+00    0.961E-01
RMM:   2    -0.873090433223E+02    0.25414E-01   -0.80728E-02    87   0.149E+00    0.593E-01
RMM:   3    -0.872961110470E+02    0.12932E-01   -0.44010E-02    93   0.797E-01    0.161E-01
RMM:   4    -0.872954095237E+02    0.70152E-03   -0.24583E-03    95   0.183E-01    0.799E-02
RMM:   5    -0.872953096908E+02    0.99833E-04   -0.10304E-03    95   0.120E-01    0.370E-02
RMM:   6    -0.872954812784E+02   -0.17159E-03   -0.62707E-04    91   0.877E-02    0.380E-02
RMM:   7    -0.872956329965E+02   -0.15172E-03   -0.23714E-04    90   0.604E-02    0.110E-02
RMM:   8    -0.872961270520E+02   -0.49406E-03   -0.16416E-04    81   0.421E-02    0.229E-02
RMM:   9    -0.872962893783E+02   -0.16233E-03   -0.12448E-04    90   0.393E-02    0.542E-03
RMM:  10    -0.872964530436E+02   -0.16367E-03   -0.18808E-05    85   0.119E-02    0.404E-03
RMM:  11    -0.872965448300E+02   -0.91786E-04   -0.10301E-05    83   0.100E-02    0.218E-03
RMM:  12    -0.872966087115E+02   -0.63882E-04   -0.45616E-06    75   0.608E-03    0.877E-04
RMM:  13    -0.872966440691E+02   -0.35358E-04   -0.15805E-06    69   0.335E-03    0.507E-04
RMM:  14    -0.872966593332E+02   -0.15264E-04   -0.75789E-07    64   0.251E-03    0.253E-04
RMM:  15    -0.872966693274E+02   -0.99942E-05   -0.36608E-07    62   0.192E-03    0.162E-04
RMM:  16    -0.872966735225E+02   -0.41951E-05   -0.14288E-07    60   0.131E-03    0.105E-04
RMM:  17    -0.872966755634E+02   -0.20409E-05   -0.43575E-08    52   0.982E-04    0.385E-05
RMM:  18    -0.872966766783E+02   -0.11149E-05   -0.64413E-09    44   0.867E-04    0.313E-05
RMM:  19    -0.872966771911E+02   -0.51281E-06   -0.11484E-08    47   0.862E-04
  19 F= -.87296677E+02 E0= -.87296677E+02  d E =-.220486E-12
       N       E                     dE             d eps       ncg     rms          rms(c)
DAV:   1    -0.873421706354E+02   -0.45494E-01   -0.12283E+00    84   0.657E+00    0.961E-01
RMM:   2    -0.873174604530E+02    0.24710E-01   -0.82670E-02    87   0.151E+00    0.593E-01
RMM:   3    -0.873048818613E+02    0.12579E-01   -0.43626E-02    93   0.793E-01    0.167E-01
RMM:   4    -0.873041564057E+02    0.72546E-03   -0.24403E-03    95   0.184E-01    0.824E-02
RMM:   5    -0.873040445210E+02    0.11188E-03   -0.10706E-03    95   0.123E-01    0.372E-02
RMM:   6    -0.873042145007E+02   -0.16998E-03   -0.61878E-04    92   0.866E-02    0.377E-02
RMM:   7    -0.873043693750E+02   -0.15487E-03   -0.23245E-04    90   0.598E-02    0.109E-02
RMM:   8    -0.873048672127E+02   -0.49784E-03   -0.16249E-04    79   0.416E-02    0.225E-02
RMM:   9    -0.873050222776E+02   -0.15506E-03   -0.12047E-04    89   0.385E-02    0.548E-03
RMM:  10    -0.873051913850E+02   -0.16911E-03   -0.19511E-05    83   0.122E-02    0.394E-03
RMM:  11    -0.873052756750E+02   -0.84290E-04   -0.94049E-06    84   0.937E-03    0.190E-03
RMM:  12    -0.873053432618E+02   -0.67587E-04   -0.46708E-06    74   0.592E-03    0.938E-04
RMM:  13    -0.873053765931E+02   -0.33331E-04   -0.14065E-06    67   0.320E-03    0.457E-04
RMM:  14    -0.873053919244E+02   -0.15331E-04   -0.73363E-07    63   0.245E-03    0.261E-04
RMM:  15    -0.873054024169E+02   -0.10492E-04   -0.36259E-07    63   0.196E-03    0.226E-04
RMM:  16    -0.873054062094E+02   -0.37925E-05   -0.13561E-07    61   0.126E-03    0.105E-04
RMM:  17    -0.873054085291E+02   -0.23197E-05   -0.51286E-08    51   0.103E-03    0.100E-04
RMM:  18    -0.873054094136E+02   -0.88455E-06   -0.44644E-09    46   0.802E-04
  20 F= -.87305409E+02 E0= -.87305409E+02  d E =-.423732E-12
       N       E                     dE             d eps       ncg     rms          rms(c)
DAV:   1    -0.873243217789E+02   -0.18913E-01   -0.12030E+00    84   0.651E+00    0.941E-01
RMM:   2    -0.873006860556E+02    0.23636E-01   -0.80915E-02    86   0.150E+00    0.584E-01
RMM:   3    -0.872884784153E+02    0.12208E-01   -0.42526E-02    94   0.783E-01    0.168E-01
RMM:   4    -0.872877408899E+02    0.73753E-03   -0.24989E-03    96   0.185E-01    0.849E-02
RMM:   5    -0.872876252992E+02    0.11559E-03   -0.11160E-03    95   0.127E-01    0.368E-02
RMM:   6    -0.872877886524E+02   -0.16335E-03   -0.56829E-04    91   0.829E-02    0.351E-02
RMM:   7    -0.872879452901E+02   -0.15664E-03   -0.18375E-04    90   0.535E-02    0.100E-02
RMM:   8    -0.872884556889E+02   -0.51040E-03   -0.18158E-04    77   0.448E-02    0.233E-02
RMM:   9    -0.872885939265E+02   -0.13824E-03   -0.11707E-04    92   0.381E-02    0.462E-03
RMM:  10    -0.872887667748E+02   -0.17285E-03   -0.19903E-05    84   0.128E-02    0.523E-03
RMM:  11    -0.872888259572E+02   -0.59182E-04   -0.72839E-06    85   0.828E-03    0.143E-03
RMM:  12    -0.872889072023E+02   -0.81245E-04   -0.48576E-06    75   0.585E-03    0.139E-03
RMM:  13    -0.872889371750E+02   -0.29973E-04   -0.16184E-06    71   0.360E-03    0.433E-04
RMM:  14    -0.872889571891E+02   -0.20014E-04   -0.11181E-06    68   0.297E-03    0.557E-04
RMM:  15    -0.872889666921E+02   -0.95031E-05   -0.33277E-07    63   0.182E-03    0.280E-04
RMM:  16    -0.872889709999E+02   -0.43077E-05   -0.16022E-07    63   0.146E-03    0.104E-04
RMM:  17    -0.872889733540E+02   -0.23541E-05   -0.51245E-08    57   0.104E-03    0.688E-05
RMM:  18    -0.872889744220E+02   -0.10679E-05   -0.89463E-09    49   0.865E-04    0.649E-05
RMM:  19    -0.872889754365E+02   -0.10145E-05    0.00000E+00    40   0.848E-04    0.353E-05
RMM:  20    -0.872889756712E+02   -0.23471E-06    0.00000E+00    44   0.871E-04
  21 F= -.87288976E+02 E0= -.87288976E+02  d E =-.223808E-11
       N       E                     dE             d eps       ncg     rms          rms(c)
DAV:   1    -0.872922238800E+02   -0.32484E-02   -0.11443E+00    84   0.637E+00    0.906E-01
RMM:   2    -0.872697297030E+02    0.22494E-01   -0.75706E-02    86   0.147E+00    0.568E-01
RMM:   3    -0.872578063529E+02    0.11923E-01   -0.43463E-02    94   0.790E-01    0.165E-01
RMM:   4    -0.872571039290E+02    0.70242E-03   -0.24049E-03    96   0.180E-01    0.896E-02
RMM:   5    -0.872569962787E+02    0.10765E-03   -0.13105E-03    95   0.141E-01    0.378E-02
RMM:   6    -0.872571436480E+02   -0.14737E-03   -0.59195E-04    91   0.862E-02    0.350E-02
RMM:   7    -0.872572989554E+02   -0.15531E-03   -0.15704E-04    89   0.505E-02    0.977E-03
RMM:   8    -0.872578126628E+02   -0.51371E-03   -0.23678E-04    77   0.538E-02    0.278E-02
RMM:   9    -0.872579454753E+02   -0.13281E-03   -0.13899E-04    91   0.429E-02    0.357E-03
RMM:  10    -0.872581212074E+02   -0.17573E-03   -0.25658E-05    87   0.144E-02    0.548E-03
RMM:  11    -0.872581813824E+02   -0.60175E-04   -0.52890E-06    80   0.659E-03    0.218E-03
RMM:  12    -0.872582478415E+02   -0.66459E-04   -0.37099E-06    74   0.505E-03    0.145E-03
RMM:  13    -0.872582821530E+02   -0.34311E-04   -0.24861E-06    71   0.469E-03    0.752E-04
RMM:  14    -0.872582963343E+02   -0.14181E-04   -0.69677E-07    66   0.243E-03    0.560E-04
RMM:  15    -0.872583050159E+02   -0.86816E-05   -0.25133E-07    63   0.167E-03    0.363E-04
RMM:  16    -0.872583096286E+02   -0.46127E-05   -0.16894E-07    63   0.152E-03    0.105E-04
RMM:  17    -0.872583116203E+02   -0.19917E-05   -0.30113E-08    53   0.867E-04    0.788E-05
RMM:  18    -0.872583128651E+02   -0.12449E-05   -0.32198E-09    44   0.819E-04    0.531E-05
RMM:  19    -0.872583135651E+02   -0.69995E-06   -0.36460E-09    41   0.836E-04
  22 F= -.87258314E+02 E0= -.87258314E+02  d E =-.149782E-10
       N       E                     dE             d eps       ncg     rms          rms(c)
DAV:   1    -0.872629617899E+02   -0.46489E-02   -0.10908E+00    76   0.623E+00    0.877E-01
RMM:   2    -0.872408168388E+02    0.22145E-01   -0.69428E-02    86   0.142E+00    0.554E-01
RMM:   3    -0.872290117318E+02    0.11805E-01   -0.47478E-02    94   0.825E-01    0.164E-01
RMM:   4    -0.872283723576E+02    0.63937E-03   -0.20752E-03    96   0.170E-01    0.958E-02
RMM:   5    -0.872282891929E+02    0.83165E-04   -0.17139E-03    93   0.166E-01    0.419E-02
RMM:   6    -0.872284076900E+02   -0.11850E-03   -0.76691E-04    93   0.103E-01    0.396E-02
RMM:   7    -0.872285636873E+02   -0.15600E-03   -0.17359E-04    88   0.550E-02    0.105E-02
RMM:   8    -0.872290465935E+02   -0.48291E-03   -0.32179E-04    78   0.667E-02    0.347E-02
RMM:   9    -0.872292046523E+02   -0.15806E-03   -0.19129E-04    88   0.518E-02    0.318E-03
RMM:  10    -0.872293759731E+02   -0.17132E-03   -0.30536E-05    88   0.167E-02    0.536E-03
RMM:  11    -0.872294419534E+02   -0.65980E-04   -0.54103E-06    78   0.593E-03    0.371E-03
RMM:  12    -0.872294959370E+02   -0.53984E-04   -0.36480E-06    75   0.549E-03    0.168E-03
RMM:  13    -0.872295303250E+02   -0.34388E-04   -0.25302E-06    69   0.492E-03    0.506E-04
RMM:  14    -0.872295412906E+02   -0.10966E-04   -0.65102E-07    70   0.270E-03    0.864E-04
RMM:  15    -0.872295506462E+02   -0.93556E-05   -0.26773E-07    63   0.177E-03    0.407E-04
RMM:  16    -0.872295543638E+02   -0.37175E-05   -0.16370E-07    66   0.152E-03    0.118E-04
RMM:  17    -0.872295566751E+02   -0.23113E-05   -0.25805E-08    51   0.841E-04    0.134E-04
RMM:  18    -0.872295580701E+02   -0.13950E-05   -0.17416E-08    46   0.895E-04    0.619E-05
RMM:  19    -0.872295585120E+02   -0.44199E-06   -0.46988E-09    47   0.884E-04
  23 F= -.87229559E+02 E0= -.87229559E+02  d E =-.203104E-13
       N       E                     dE             d eps       ncg     rms          rms(c)
DAV:   1    -0.872480060883E+02   -0.18448E-01   -0.10747E+00    76   0.618E+00    0.876E-01
RMM:   2    -0.872252286039E+02    0.22777E-01   -0.67955E-02    86   0.140E+00    0.553E-01
RMM:   3    -0.872132919227E+02    0.11937E-01   -0.52174E-02    94   0.863E-01    0.171E-01
RMM:   4    -0.872126527608E+02    0.63916E-03   -0.18875E-03    96   0.166E-01    0.100E-01
RMM:   5    -0.872126002964E+02    0.52464E-04   -0.21549E-03    94   0.188E-01    0.480E-02
RMM:   6    -0.872126874879E+02   -0.87192E-04   -0.99463E-04    93   0.120E-01    0.441E-02
RMM:   7    -0.872128506028E+02   -0.16311E-03   -0.20467E-04    85   0.608E-02    0.108E-02
RMM:   8    -0.872132826105E+02   -0.43201E-03   -0.34895E-04    79   0.712E-02    0.372E-02
RMM:   9    -0.872134817041E+02   -0.19909E-03   -0.22158E-04    86   0.555E-02    0.336E-03
RMM:  10    -0.872136192294E+02   -0.13753E-03   -0.26939E-05    89   0.163E-02    0.441E-03
RMM:  11    -0.872137135551E+02   -0.94326E-04   -0.80159E-06    78   0.703E-03    0.356E-03
RMM:  12    -0.872137585486E+02   -0.44994E-04   -0.25874E-06    73   0.457E-03    0.222E-03
RMM:  13    -0.872137965695E+02   -0.38021E-04   -0.39154E-06    78   0.609E-03    0.866E-04
RMM:  14    -0.872138086995E+02   -0.12130E-04   -0.44969E-07    69   0.233E-03    0.410E-04
RMM:  15    -0.872138165067E+02   -0.78072E-05   -0.24477E-07    61   0.153E-03    0.544E-04
RMM:  16    -0.872138222672E+02   -0.57605E-05   -0.13576E-07    56   0.139E-03    0.319E-04
RMM:  17    -0.872138237332E+02   -0.14660E-05   -0.10785E-07    66   0.142E-03    0.232E-04
RMM:  18    -0.872138243691E+02   -0.63591E-06   -0.52083E-09    48   0.649E-04
  24 F= -.87213824E+02 E0= -.87213824E+02  d E =-.348771E-12
       N       E                     dE             d eps       ncg     rms          rms(c)
DAV:   1    -0.872472009385E+02   -0.33377E-01   -0.11015E+00    84   0.627E+00    0.901E-01
RMM:   2    -0.872231405321E+02    0.24060E-01   -0.72860E-02    86   0.144E+00    0.568E-01
RMM:   3    -0.872107721248E+02    0.12368E-01   -0.55204E-02    94   0.883E-01    0.176E-01
RMM:   4    -0.872101033991E+02    0.66873E-03   -0.19343E-03    96   0.170E-01    0.101E-01
RMM:   5    -0.872100675773E+02    0.35822E-04   -0.22675E-03    93   0.190E-01    0.511E-02
RMM:   6    -0.872101548480E+02   -0.87271E-04   -0.11508E-03    93   0.128E-01    0.475E-02
RMM:   7    -0.872103162557E+02   -0.16141E-03   -0.24495E-04    85   0.665E-02    0.105E-02
RMM:   8    -0.872107266663E+02   -0.41041E-03   -0.32492E-04    80   0.679E-02    0.364E-02
RMM:   9    -0.872109386057E+02   -0.21194E-03   -0.22268E-04    84   0.544E-02    0.330E-03
RMM:  10    -0.872110599385E+02   -0.12133E-03   -0.22161E-05    88   0.146E-02    0.329E-03
RMM:  11    -0.872111682478E+02   -0.10831E-03   -0.95604E-06    75   0.777E-03    0.298E-03
RMM:  12    -0.872112077925E+02   -0.39545E-04   -0.29462E-06    75   0.431E-03    0.192E-03
RMM:  13    -0.872112461991E+02   -0.38407E-04   -0.30713E-06    74   0.511E-03    0.583E-04
RMM:  14    -0.872112610720E+02   -0.14873E-04   -0.51325E-07    66   0.231E-03    0.291E-04
RMM:  15    -0.872112689926E+02   -0.79206E-05   -0.31627E-07    66   0.184E-03    0.547E-04
RMM:  16    -0.872112743829E+02   -0.53903E-05   -0.12410E-07    57   0.128E-03    0.430E-04
RMM:  17    -0.872112760311E+02   -0.16482E-05   -0.86952E-08    61   0.134E-03    0.880E-05
RMM:  18    -0.872112769741E+02   -0.94309E-06   -0.15524E-08    50   0.882E-04
  25 F= -.87211277E+02 E0= -.87211277E+02  d E =-.470548E-11
       N       E                     dE             d eps       ncg     rms          rms(c)
DAV:   1    -0.872515464469E+02   -0.40270E-01   -0.11505E+00    88   0.641E+00    0.935E-01
RMM:   2    -0.872260791376E+02    0.25467E-01   -0.79945E-02    86   0.150E+00    0.588E-01
RMM:   3    -0.872131003657E+02    0.12979E-01   -0.56503E-02    94   0.890E-01    0.177E-01
RMM:   4    -0.872124303807E+02    0.66999E-03   -0.20521E-03    96   0.175E-01    0.972E-02
RMM:   5    -0.872124043794E+02    0.26001E-04   -0.20489E-03    92   0.178E-01    0.503E-02
RMM:   6    -0.872125163808E+02   -0.11200E-03   -0.11817E-03    94   0.127E-01    0.494E-02
RMM:   7    -0.872126702258E+02   -0.15384E-03   -0.28490E-04    85   0.706E-02    0.100E-02
RMM:   8    -0.872130835057E+02   -0.41328E-03   -0.28753E-04    80   0.623E-02    0.345E-02
RMM:   9    -0.872132875274E+02   -0.20402E-03   -0.20640E-04    85   0.511E-02    0.328E-03
RMM:  10    -0.872134108384E+02   -0.12331E-03   -0.20758E-05    87   0.138E-02    0.282E-03
RMM:  11    -0.872135212664E+02   -0.11043E-03   -0.11075E-05    78   0.828E-03    0.320E-03
RMM:  12    -0.872135534927E+02   -0.32226E-04   -0.29404E-06    75   0.491E-03    0.123E-03
RMM:  13    -0.872135909894E+02   -0.37497E-04   -0.18205E-06    67   0.367E-03    0.618E-04
RMM:  14    -0.872136076369E+02   -0.16648E-04   -0.10704E-06    70   0.327E-03    0.713E-04
RMM:  15    -0.872136168411E+02   -0.92042E-05   -0.32200E-07    61   0.183E-03    0.480E-04
RMM:  16    -0.872136215069E+02   -0.46658E-05   -0.17361E-07    66   0.159E-03    0.126E-04
RMM:  17    -0.872136232993E+02   -0.17924E-05   -0.38630E-08    55   0.890E-04    0.538E-05
RMM:  18    -0.872136244935E+02   -0.11942E-05   -0.28269E-09    44   0.746E-04    0.359E-05
RMM:  19    -0.872136252876E+02   -0.79404E-06   -0.10447E-08    45   0.812E-04
  26 F= -.87213625E+02 E0= -.87213625E+02  d E =-.287375E-10
       N       E                     dE             d eps       ncg     rms          rms(c)
DAV:   1    -0.872509235636E+02   -0.37299E-01   -0.11932E+00    84   0.650E+00    0.962E-01
RMM:   2    -0.872243272038E+02    0.26596E-01   -0.85040E-02    87   0.154E+00    0.603E-01
RMM:   3    -0.872107707333E+02    0.13556E-01   -0.55726E-02    94   0.885E-01    0.170E-01
RMM:   4    -0.872101561417E+02    0.61459E-03   -0.21247E-03    95   0.176E-01    0.903E-02
RMM:   5    -0.872101397962E+02    0.16346E-04   -0.15960E-03    92   0.155E-01    0.462E-02
RMM:   6    -0.872102833073E+02   -0.14351E-03   -0.10519E-03    93   0.117E-01    0.481E-02
RMM:   7    -0.872104336124E+02   -0.15031E-03   -0.30134E-04    85   0.712E-02    0.101E-02
RMM:   8    -0.872108710499E+02   -0.43744E-03   -0.24513E-04    80   0.559E-02    0.320E-02
RMM:   9    -0.872110482115E+02   -0.17716E-03   -0.18015E-04    86   0.469E-02    0.328E-03
RMM:  10    -0.872111832217E+02   -0.13501E-03   -0.21488E-05    89   0.135E-02    0.303E-03
RMM:  11    -0.872112837301E+02   -0.10051E-03   -0.91409E-06    75   0.751E-03    0.192E-03
RMM:  12    -0.872113204219E+02   -0.36692E-04   -0.25009E-06    74   0.393E-03    0.110E-03
RMM:  13    -0.872113565536E+02   -0.36132E-04   -0.21047E-06    71   0.375E-03    0.442E-04
RMM:  14    -0.872113699081E+02   -0.13354E-04   -0.64914E-07    68   0.249E-03    0.451E-04
RMM:  15    -0.872113778788E+02   -0.79707E-05   -0.27075E-07    58   0.166E-03    0.353E-04
RMM:  16    -0.872113816914E+02   -0.38126E-05   -0.11981E-07    63   0.134E-03    0.122E-04
RMM:  17    -0.872113838945E+02   -0.22031E-05   -0.34506E-08    51   0.977E-04    0.563E-05
RMM:  18    -0.872113845152E+02   -0.62073E-06   -0.96597E-09    49   0.770E-04
  27 F= -.87211385E+02 E0= -.87211385E+02  d E =-.635323E-14
       N       E                     dE             d eps       ncg     rms          rms(c)
DAV:   1    -0.872395435595E+02   -0.28160E-01   -0.12090E+00    88   0.652E+00    0.972E-01
RMM:   2    -0.872124822223E+02    0.27061E-01   -0.86759E-02    86   0.154E+00    0.608E-01
RMM:   3    -0.871985252849E+02    0.13957E-01   -0.53505E-02    94   0.873E-01    0.156E-01
RMM:   4    -0.871980061570E+02    0.51913E-03   -0.21151E-03    95   0.173E-01    0.821E-02
RMM:   5    -0.871979996657E+02    0.64913E-05   -0.11424E-03    92   0.131E-01    0.412E-02
RMM:   6    -0.871981634538E+02   -0.16379E-03   -0.82518E-04    92   0.102E-01    0.428E-02
RMM:   7    -0.871983184555E+02   -0.15500E-03   -0.26902E-04    85   0.667E-02    0.107E-02
RMM:   8    -0.871987805815E+02   -0.46213E-03   -0.20598E-04    79   0.499E-02    0.288E-02
RMM:   9    -0.871989281416E+02   -0.14756E-03   -0.14388E-04    90   0.418E-02    0.329E-03
RMM:  10    -0.871990752304E+02   -0.14709E-03   -0.23627E-05    86   0.140E-02    0.376E-03
RMM:  11    -0.871991628165E+02   -0.87586E-04   -0.83079E-06    79   0.739E-03    0.162E-03
RMM:  12    -0.871992048258E+02   -0.42009E-04   -0.21384E-06    74   0.392E-03    0.107E-03
RMM:  13    -0.871992409630E+02   -0.36137E-04   -0.23111E-06    71   0.392E-03    0.440E-04
RMM:  14    -0.871992511904E+02   -0.10227E-04   -0.48983E-07    65   0.224E-03    0.366E-04
RMM:  15    -0.871992584781E+02   -0.72876E-05   -0.24182E-07    64   0.170E-03    0.492E-04
RMM:  16    -0.871992616567E+02   -0.31786E-05   -0.90858E-08    59   0.121E-03    0.189E-04
RMM:  17    -0.871992633575E+02   -0.17008E-05   -0.67261E-08    55   0.121E-03    0.167E-04
RMM:  18    -0.871992639732E+02   -0.61572E-06   -0.37980E-09    47   0.762E-04
  28 F= -.87199264E+02 E0= -.87199264E+02  d E =-.103193E-13
       N       E                     dE             d eps       ncg     rms          rms(c)
DAV:   1    -0.872172559283E+02   -0.17993E-01   -0.11923E+00    84   0.646E+00    0.963E-01
RMM:   2    -0.871904560327E+02    0.26800E-01   -0.85520E-02    85   0.152E+00    0.604E-01
RMM:   3    -0.871763365984E+02    0.14119E-01   -0.50842E-02    94   0.859E-01    0.140E-01
RMM:   4    -0.871759158784E+02    0.42072E-03   -0.20362E-03    95   0.168E-01    0.744E-02
RMM:   5    -0.871759163306E+02   -0.45222E-06   -0.81481E-04    92   0.112E-01    0.369E-02
RMM:   6    -0.871760866752E+02   -0.17034E-03   -0.61188E-04    90   0.881E-02    0.356E-02
RMM:   7    -0.871762530402E+02   -0.16636E-03   -0.20997E-04    87   0.591E-02    0.113E-02
RMM:   8    -0.871767374347E+02   -0.48439E-03   -0.18135E-04    78   0.456E-02    0.256E-02
RMM:   9    -0.871768566569E+02   -0.11922E-03   -0.11119E-04    92   0.372E-02    0.329E-03
RMM:  10    -0.871770110277E+02   -0.15437E-03   -0.25530E-05    86   0.148E-02    0.481E-03
RMM:  11    -0.871770895113E+02   -0.78484E-04   -0.76084E-06    79   0.757E-03    0.182E-03
RMM:  12    -0.871771312366E+02   -0.41725E-04   -0.21959E-06    74   0.423E-03    0.102E-03
RMM:  13    -0.871771682431E+02   -0.37006E-04   -0.23589E-06    71   0.407E-03    0.464E-04
RMM:  14    -0.871771787284E+02   -0.10485E-04   -0.48911E-07    65   0.218E-03    0.385E-04
RMM:  15    -0.871771864911E+02   -0.77627E-05   -0.24469E-07    61   0.167E-03    0.406E-04
RMM:  16    -0.871771903321E+02   -0.38411E-05   -0.10605E-07    60   0.126E-03    0.162E-04
RMM:  17    -0.871771917703E+02   -0.14382E-05   -0.46240E-08    54   0.104E-03    0.108E-04
RMM:  18    -0.871771924671E+02   -0.69674E-06   -0.10189E-08    50   0.851E-04
  29 F= -.87177192E+02 E0= -.87177192E+02  d E =-.870986E-14
       N       E                     dE             d eps       ncg     rms          rms(c)
DAV:   1    -0.871880080332E+02   -0.10816E-01   -0.11482E+00    80   0.634E+00    0.940E-01
RMM:   2    -0.871619977480E+02    0.26010E-01   -0.82214E-02    86   0.149E+00    0.592E-01
RMM:   3    -0.871479640338E+02    0.14034E-01   -0.48056E-02    94   0.840E-01    0.124E-01
RMM:   4    -0.871476199023E+02    0.34413E-03   -0.19324E-03    95   0.160E-01    0.680E-02
RMM:   5    -0.871476240338E+02   -0.41315E-05   -0.61463E-04    92   0.979E-02    0.334E-02
RMM:   6    -0.871477919740E+02   -0.16794E-03   -0.46402E-04    90   0.767E-02    0.290E-02
RMM:   7    -0.871479721391E+02   -0.18017E-03   -0.15845E-04    86   0.515E-02    0.116E-02
RMM:   8    -0.871484767731E+02   -0.50463E-03   -0.16785E-04    78   0.421E-02    0.222E-02
RMM:   9    -0.871485712360E+02   -0.94463E-04   -0.87219E-05    94   0.336E-02    0.316E-03
RMM:  10    -0.871487275334E+02   -0.15630E-03   -0.22792E-05    87   0.140E-02    0.497E-03
RMM:  11    -0.871488048657E+02   -0.77332E-04   -0.73423E-06    78   0.725E-03    0.227E-03
RMM:  12    -0.871488446900E+02   -0.39824E-04   -0.23833E-06    73   0.475E-03    0.865E-04
RMM:  13    -0.871488792482E+02   -0.34558E-04   -0.21748E-06    69   0.407E-03    0.602E-04
RMM:  14    -0.871488911468E+02   -0.11899E-04   -0.54857E-07    65   0.223E-03    0.522E-04
RMM:  15    -0.871488996983E+02   -0.85515E-05   -0.28763E-07    65   0.179E-03    0.178E-04
RMM:  16    -0.871489029234E+02   -0.32252E-05   -0.92052E-08    59   0.109E-03    0.113E-04
RMM:  17    -0.871489044261E+02   -0.15026E-05   -0.24431E-08    49   0.933E-04    0.587E-05
RMM:  18    -0.871489054676E+02   -0.10416E-05   -0.21636E-08    51   0.963E-04    0.143E-04
RMM:  19    -0.871489058111E+02   -0.34347E-06    0.00000E+00    46   0.766E-04
  30 F= -.87148906E+02 E0= -.87148906E+02  d E =-.527169E-14
       N       E                     dE             d eps       ncg     rms          rms(c)
DAV:   1    -0.871580974397E+02   -0.91920E-02   -0.10865E+00    72   0.616E+00    0.910E-01
RMM:   2    -0.871331325836E+02    0.24965E-01   -0.77565E-02    85   0.145E+00    0.575E-01
RMM:   3    -0.871194349565E+02    0.13698E-01   -0.45234E-02    94   0.817E-01    0.111E-01
RMM:   4    -0.871191268572E+02    0.30810E-03   -0.18454E-03    95   0.154E-01    0.631E-02
RMM:   5    -0.871191279938E+02   -0.11366E-05   -0.51140E-04    92   0.878E-02    0.310E-02
RMM:   6    -0.871192914142E+02   -0.16342E-03   -0.38941E-04    89   0.690E-02    0.247E-02
RMM:   7    -0.871194832127E+02   -0.19180E-03   -0.13090E-04    88   0.459E-02    0.117E-02
RMM:   8    -0.871199995313E+02   -0.51632E-03   -0.15824E-04    77   0.388E-02    0.189E-02
RMM:   9    -0.871200818421E+02   -0.82311E-04   -0.71343E-05    96   0.299E-02    0.321E-03
RMM:  10    -0.871202286531E+02   -0.14681E-03   -0.17286E-05    85   0.125E-02    0.536E-03
RMM:  11    -0.871203144092E+02   -0.85756E-04   -0.91775E-06    80   0.817E-03    0.204E-03
RMM:  12    -0.871203553067E+02   -0.40897E-04   -0.20531E-06    73   0.424E-03    0.103E-03
RMM:  13    -0.871203862133E+02   -0.30907E-04   -0.19632E-06    68   0.415E-03    0.683E-04
RMM:  14    -0.871204005341E+02   -0.14321E-04   -0.69672E-07    65   0.253E-03    0.664E-04
RMM:  15    -0.871204080398E+02   -0.75057E-05   -0.29630E-07    67   0.191E-03    0.165E-04
RMM:  16    -0.871204117316E+02   -0.36918E-05   -0.13580E-07    59   0.136E-03    0.202E-04
RMM:  17    -0.871204131701E+02   -0.14385E-05   -0.25382E-08    52   0.850E-04    0.721E-05
RMM:  18    -0.871204145367E+02   -0.13666E-05   -0.68938E-09    41   0.874E-04    0.374E-05
RMM:  19    -0.871204149803E+02   -0.44356E-06    0.00000E+00    44   0.838E-04
  31 F= -.87120415E+02 E0= -.87120415E+02  d E =-.308344E-10
       N       E                     dE             d eps       ncg     rms          rms(c)
DAV:   1    -0.871349208763E+02   -0.14506E-01   -0.10206E+00    76   0.595E+00    0.879E-01
RMM:   2    -0.871109968497E+02    0.23924E-01   -0.71941E-02    85   0.141E+00    0.554E-01
RMM:   3    -0.870978177470E+02    0.13179E-01   -0.43032E-02    94   0.797E-01    0.102E-01
RMM:   4    -0.870975245022E+02    0.29324E-03   -0.17058E-03    96   0.146E-01    0.591E-02
RMM:   5    -0.870975164544E+02    0.80478E-05   -0.46329E-04    92   0.796E-02    0.297E-02
RMM:   6    -0.870976770388E+02   -0.16058E-03   -0.37865E-04    89   0.667E-02    0.238E-02
RMM:   7    -0.870978751648E+02   -0.19813E-03   -0.13867E-04    85   0.458E-02    0.128E-02
RMM:   8    -0.870983965142E+02   -0.52135E-03   -0.15232E-04    78   0.364E-02    0.171E-02
RMM:   9    -0.870984773931E+02   -0.80879E-04   -0.67306E-05    97   0.279E-02    0.367E-03
RMM:  10    -0.870986241750E+02   -0.14678E-03   -0.14192E-05    83   0.109E-02    0.531E-03
RMM:  11    -0.870987096679E+02   -0.85493E-04   -0.96126E-06    81   0.847E-03    0.173E-03
RMM:  12    -0.870987513366E+02   -0.41669E-04   -0.20597E-06    72   0.416E-03    0.102E-03
RMM:  13    -0.870987807062E+02   -0.29370E-04   -0.17601E-06    69   0.392E-03    0.710E-04
RMM:  14    -0.870987957701E+02   -0.15064E-04   -0.75152E-07    68   0.252E-03    0.610E-04
RMM:  15    -0.870988027866E+02   -0.70165E-05   -0.24527E-07    64   0.173E-03    0.207E-04
RMM:  16    -0.870988072103E+02   -0.44237E-05   -0.16743E-07    62   0.153E-03    0.278E-04
RMM:  17    -0.870988083513E+02   -0.11410E-05   -0.20156E-08    50   0.804E-04    0.146E-04
RMM:  18    -0.870988100101E+02   -0.16588E-05   -0.34088E-08    49   0.103E-03    0.141E-04
RMM:  19    -0.870988102377E+02   -0.22753E-06    0.00000E+00    47   0.708E-04
  32 F= -.87098810E+02 E0= -.87098810E+02  d E =-.130050E-10
       N       E                     dE             d eps       ncg     rms          rms(c)
DAV:   1    -0.871252316655E+02   -0.26422E-01   -0.96645E-01    72   0.576E+00    0.854E-01
RMM:   2    -0.871021785760E+02    0.23053E-01   -0.66616E-02    85   0.136E+00    0.534E-01
RMM:   3    -0.870895905289E+02    0.12588E-01   -0.41543E-02    94   0.784E-01    0.998E-02
RMM:   4    -0.870892949014E+02    0.29563E-03   -0.15477E-03    96   0.140E-01    0.568E-02
RMM:   5    -0.870892677507E+02    0.27151E-04   -0.46692E-04    92   0.771E-02    0.296E-02
RMM:   6    -0.870894309749E+02   -0.16322E-03   -0.42104E-04    89   0.709E-02    0.267E-02
RMM:   7    -0.870896224613E+02   -0.19149E-03   -0.18023E-04    87   0.516E-02    0.142E-02
RMM:   8    -0.870901508292E+02   -0.52837E-03   -0.15563E-04    77   0.365E-02    0.178E-02
RMM:   9    -0.870902332012E+02   -0.82372E-04   -0.72509E-05    96   0.293E-02    0.386E-03
RMM:  10    -0.870903844090E+02   -0.15121E-03   -0.14407E-05    85   0.108E-02    0.508E-03
RMM:  11    -0.870904686785E+02   -0.84269E-04   -0.95559E-06    81   0.865E-03    0.135E-03
RMM:  12    -0.870905126582E+02   -0.43980E-04   -0.20284E-06    72   0.401E-03    0.110E-03
RMM:  13    -0.870905414758E+02   -0.28818E-04   -0.14899E-06    68   0.353E-03    0.505E-04
RMM:  14    -0.870905577350E+02   -0.16259E-04   -0.83421E-07    68   0.258E-03    0.561E-04
RMM:  15    -0.870905636875E+02   -0.59525E-05   -0.22557E-07    60   0.152E-03    0.316E-04
RMM:  16    -0.870905693071E+02   -0.56196E-05   -0.21301E-07    62   0.174E-03    0.310E-04
RMM:  17    -0.870905698320E+02   -0.52485E-06   -0.18391E-08    50   0.732E-04
  33 F= -.87090570E+02 E0= -.87090570E+02  d E =-.674440E-11
       N       E                     dE             d eps       ncg     rms          rms(c)
DAV:   1    -0.871325608602E+02   -0.41992E-01   -0.93913E-01    88   0.567E+00    0.842E-01
RMM:   2    -0.871101193983E+02    0.22441E-01   -0.63133E-02    86   0.132E+00    0.523E-01
RMM:   3    -0.870980635672E+02    0.12056E-01   -0.40467E-02    93   0.774E-01    0.105E-01
RMM:   4    -0.870977283389E+02    0.33523E-03   -0.14728E-03    96   0.139E-01    0.570E-02
RMM:   5    -0.870976755114E+02    0.52827E-04   -0.53154E-04    92   0.825E-02    0.305E-02
RMM:   6    -0.870978449143E+02   -0.16940E-03   -0.51436E-04    87   0.806E-02    0.328E-02
RMM:   7    -0.870980156267E+02   -0.17071E-03   -0.25075E-04    90   0.619E-02    0.150E-02
RMM:   8    -0.870985430033E+02   -0.52738E-03   -0.16105E-04    80   0.381E-02    0.205E-02
RMM:   9    -0.870986413058E+02   -0.98303E-04   -0.91295E-05    94   0.338E-02    0.396E-03
RMM:  10    -0.870987964232E+02   -0.15512E-03   -0.14667E-05    85   0.109E-02    0.453E-03
RMM:  11    -0.870988789120E+02   -0.82489E-04   -0.91420E-06    81   0.855E-03    0.129E-03
RMM:  12    -0.870989304889E+02   -0.51577E-04   -0.25691E-06    69   0.441E-03    0.105E-03
RMM:  13    -0.870989575679E+02   -0.27079E-04   -0.12699E-06    68   0.308E-03    0.486E-04
RMM:  14    -0.870989764840E+02   -0.18916E-04   -0.10078E-06    69   0.284E-03    0.470E-04
RMM:  15    -0.870989834200E+02   -0.69360E-05   -0.27490E-07    60   0.161E-03    0.278E-04
RMM:  16    -0.870989883774E+02   -0.49574E-05   -0.17935E-07    64   0.153E-03    0.191E-04
RMM:  17    -0.870989894688E+02   -0.10915E-05   -0.25455E-08    51   0.792E-04    0.789E-05
RMM:  18    -0.870989913448E+02   -0.18760E-05   -0.31083E-08    49   0.940E-04    0.116E-04
RMM:  19    -0.870989915558E+02   -0.21102E-06    0.00000E+00    48   0.664E-04
  34 F= -.87098992E+02 E0= -.87098992E+02  d E =-.614866E-11
       N       E                     dE             d eps       ncg     rms          rms(c)
DAV:   1    -0.871547313929E+02   -0.55740E-01   -0.94584E-01    80   0.568E+00    0.847E-01
RMM:   2    -0.871325926427E+02    0.22139E-01   -0.62447E-02    88   0.131E+00    0.522E-01
RMM:   3    -0.871209207050E+02    0.11672E-01   -0.39436E-02    93   0.764E-01    0.114E-01
RMM:   4    -0.871205156291E+02    0.40508E-03   -0.15077E-03    95   0.142E-01    0.590E-02
RMM:   5    -0.871204325925E+02    0.83037E-04   -0.61508E-04    93   0.898E-02    0.317E-02
RMM:   6    -0.871206081197E+02   -0.17553E-03   -0.58224E-04    88   0.874E-02    0.372E-02
RMM:   7    -0.871207646750E+02   -0.15656E-03   -0.30632E-04    87   0.695E-02    0.153E-02
RMM:   8    -0.871212762108E+02   -0.51154E-03   -0.15577E-04    80   0.382E-02    0.219E-02
RMM:   9    -0.871214035537E+02   -0.12734E-03   -0.10761E-04    91   0.377E-02    0.435E-03
RMM:  10    -0.871215720740E+02   -0.16852E-03   -0.20405E-05    83   0.116E-02    0.388E-03
RMM:  11    -0.871216525145E+02   -0.80440E-04   -0.81513E-06    82   0.843E-03    0.136E-03
RMM:  12    -0.871217035376E+02   -0.51023E-04   -0.27515E-06    70   0.452E-03    0.762E-04
RMM:  13    -0.871217341379E+02   -0.30600E-04   -0.15126E-06    66   0.315E-03    0.456E-04
RMM:  14    -0.871217471887E+02   -0.13051E-04   -0.61729E-07    64   0.227E-03    0.276E-04
RMM:  15    -0.871217566806E+02   -0.94919E-05   -0.35298E-07    65   0.185E-03    0.211E-04
RMM:  16    -0.871217601522E+02   -0.34715E-05   -0.11830E-07    59   0.113E-03    0.130E-04
RMM:  17    -0.871217623988E+02   -0.22466E-05   -0.40913E-08    51   0.102E-03    0.475E-05
RMM:  18    -0.871217634499E+02   -0.10511E-05   -0.46984E-09    46   0.892E-04    0.292E-05
RMM:  19    -0.871217641579E+02   -0.70801E-06   -0.48931E-09    43   0.927E-04
  35 F= -.87121764E+02 E0= -.87121764E+02  d E =-.645332E-11
       N       E                     dE             d eps       ncg     rms          rms(c)
DAV:   1    -0.871835532663E+02   -0.61790E-01   -0.97978E-01    80   0.578E+00    0.865E-01
RMM:   2    -0.871614441727E+02    0.22109E-01   -0.63903E-02    88   0.133E+00    0.530E-01
RMM:   3    -0.871500175170E+02    0.11427E-01   -0.38560E-02    94   0.755E-01    0.122E-01
RMM:   4    -0.871495491123E+02    0.46840E-03   -0.15762E-03    96   0.146E-01    0.612E-02
RMM:   5    -0.871494394427E+02    0.10967E-03   -0.66189E-04    94   0.935E-02    0.322E-02
RMM:   6    -0.871496176061E+02   -0.17816E-03   -0.57790E-04    87   0.874E-02    0.377E-02
RMM:   7    -0.871497738374E+02   -0.15623E-03   -0.32178E-04    87   0.715E-02    0.157E-02
RMM:   8    -0.871502668663E+02   -0.49303E-03   -0.14128E-04    80   0.363E-02    0.214E-02
RMM:   9    -0.871504171765E+02   -0.15031E-03   -0.11589E-04    91   0.388E-02    0.539E-03
RMM:  10    -0.871505805471E+02   -0.16337E-03   -0.18770E-05    82   0.113E-02    0.339E-03
RMM:  11    -0.871506805306E+02   -0.99983E-04   -0.97821E-06    82   0.890E-03    0.130E-03
RMM:  12    -0.871507252078E+02   -0.44677E-04   -0.31646E-06    72   0.432E-03    0.702E-04
RMM:  13    -0.871507517275E+02   -0.26520E-04   -0.12562E-06    65   0.308E-03    0.528E-04
RMM:  14    -0.871507672254E+02   -0.15498E-04   -0.64403E-07    64   0.230E-03    0.226E-04
RMM:  15    -0.871507746777E+02   -0.74522E-05   -0.31232E-07    68   0.187E-03    0.347E-04
RMM:  16    -0.871507785630E+02   -0.38853E-05   -0.11570E-07    57   0.122E-03    0.108E-04
RMM:  17    -0.871507802324E+02   -0.16694E-05   -0.35793E-08    53   0.105E-03    0.800E-05
RMM:  18    -0.871507814142E+02   -0.11818E-05   -0.97666E-09    46   0.911E-04    0.448E-05
RMM:  19    -0.871507819444E+02   -0.53012E-06   -0.66034E-09    47   0.875E-04
  36 F= -.87150782E+02 E0= -.87150782E+02  d E =-.765930E-11
       N       E                     dE             d eps       ncg     rms          rms(c)
DAV:   1    -0.872080013182E+02   -0.57220E-01   -0.10205E+00    84   0.590E+00    0.885E-01
RMM:   2    -0.871859436204E+02    0.22058E-01   -0.65913E-02    85   0.134E+00    0.539E-01
RMM:   3    -0.871746463957E+02    0.11297E-01   -0.37701E-02    93   0.748E-01    0.128E-01
RMM:   4    -0.871741458784E+02    0.50052E-03   -0.16297E-03    95   0.149E-01    0.628E-02
RMM:   5    -0.871740251392E+02    0.12074E-03   -0.65969E-04    94   0.932E-02    0.321E-02
RMM:   6    -0.871742030683E+02   -0.17793E-03   -0.53077E-04    90   0.828E-02    0.358E-02
RMM:   7    -0.871743663543E+02   -0.16329E-03   -0.30579E-04    89   0.691E-02    0.161E-02
RMM:   8    -0.871748451807E+02   -0.47883E-03   -0.12567E-04    80   0.336E-02    0.196E-02
RMM:   9    -0.871750063523E+02   -0.16117E-03   -0.11238E-04    91   0.375E-02    0.626E-03
RMM:  10    -0.871751635923E+02   -0.15724E-03   -0.18441E-05    84   0.115E-02    0.317E-03
RMM:  11    -0.871752713083E+02   -0.10772E-03   -0.11453E-05    82   0.980E-03    0.179E-03
RMM:  12    -0.871753134865E+02   -0.42178E-04   -0.30770E-06    72   0.460E-03    0.667E-04
RMM:  13    -0.871753391590E+02   -0.25673E-04   -0.13319E-06    67   0.332E-03    0.654E-04
RMM:  14    -0.871753538682E+02   -0.14709E-04   -0.61317E-07    63   0.234E-03    0.227E-04
RMM:  15    -0.871753610730E+02   -0.72048E-05   -0.30378E-07    67   0.183E-03    0.270E-04
RMM:  16    -0.871753650620E+02   -0.39889E-05   -0.11729E-07    58   0.122E-03    0.110E-04
RMM:  17    -0.871753667839E+02   -0.17219E-05   -0.25749E-08    51   0.971E-04    0.674E-05
RMM:  18    -0.871753680831E+02   -0.12993E-05   -0.18124E-08    46   0.933E-04    0.365E-05
RMM:  19    -0.871753686720E+02   -0.58884E-06    0.00000E+00    43   0.857E-04
  37 F= -.87175369E+02 E0= -.87175369E+02  d E =-.843930E-11
       N       E                     dE             d eps       ncg     rms          rms(c)
DAV:   1    -0.872199634356E+02   -0.44595E-01   -0.10447E+00    80   0.596E+00    0.893E-01
RMM:   2    -0.871982652834E+02    0.21698E-01   -0.66513E-02    87   0.135E+00    0.545E-01
RMM:   3    -0.871870680927E+02    0.11197E-01   -0.36735E-02    94   0.740E-01    0.127E-01
RMM:   4    -0.871865744943E+02    0.49360E-03   -0.16358E-03    95   0.149E-01    0.633E-02
RMM:   5    -0.871864604161E+02    0.11408E-03   -0.62497E-04    94   0.909E-02    0.314E-02
RMM:   6    -0.871866356877E+02   -0.17527E-03   -0.47202E-04    88   0.766E-02    0.330E-02
RMM:   7    -0.871868042714E+02   -0.16858E-03   -0.26110E-04    88   0.632E-02    0.155E-02
RMM:   8    -0.871872784124E+02   -0.47414E-03   -0.11765E-04    79   0.320E-02    0.174E-02
RMM:   9    -0.871874374647E+02   -0.15905E-03   -0.10260E-04    92   0.346E-02    0.680E-03
RMM:  10    -0.871875871963E+02   -0.14973E-03   -0.13241E-05    83   0.109E-02    0.347E-03
RMM:  11    -0.871876718303E+02   -0.84634E-04   -0.11566E-05    85   0.103E-02    0.270E-03
RMM:  12    -0.871877274485E+02   -0.55618E-04   -0.42521E-06    73   0.636E-03    0.860E-04
RMM:  13    -0.871877590797E+02   -0.31631E-04   -0.14745E-06    67   0.327E-03    0.460E-04
RMM:  14    -0.871877719233E+02   -0.12844E-04   -0.68662E-07    65   0.224E-03    0.280E-04
RMM:  15    -0.871877819604E+02   -0.10037E-04   -0.32714E-07    64   0.183E-03    0.156E-04
RMM:  16    -0.871877862774E+02   -0.43170E-05   -0.12875E-07    60   0.127E-03    0.102E-04
RMM:  17    -0.871877881642E+02   -0.18868E-05   -0.36514E-08    52   0.912E-04    0.486E-05
RMM:  18    -0.871877895481E+02   -0.13839E-05   -0.72111E-09    45   0.869E-04    0.491E-05
RMM:  19    -0.871877900718E+02   -0.52369E-06   -0.30212E-09    43   0.871E-04
  38 F= -.87187790E+02 E0= -.87187790E+02  d E =-.129011E-10
       N       E                     dE             d eps       ncg     rms          rms(c)
DAV:   1    -0.872191166082E+02   -0.31327E-01   -0.10409E+00    84   0.594E+00    0.884E-01
RMM:   2    -0.871981249662E+02    0.20992E-01   -0.64473E-02    86   0.133E+00    0.542E-01
RMM:   3    -0.871870555332E+02    0.11069E-01   -0.36206E-02    94   0.737E-01    0.123E-01
RMM:   4    -0.871866084520E+02    0.44708E-03   -0.15605E-03    95   0.145E-01    0.636E-02
RMM:   5    -0.871865142466E+02    0.94205E-04   -0.58721E-04    94   0.908E-02    0.303E-02
RMM:   6    -0.871866822393E+02   -0.16799E-03   -0.42945E-04    92   0.726E-02    0.305E-02
RMM:   7    -0.871868506546E+02   -0.16842E-03   -0.20387E-04    90   0.566E-02    0.136E-02
RMM:   8    -0.871873323965E+02   -0.48174E-03   -0.12144E-04    78   0.327E-02    0.163E-02
RMM:   9    -0.871874725908E+02   -0.14019E-03   -0.87046E-05    93   0.318E-02    0.597E-03
RMM:  10    -0.871876242717E+02   -0.15168E-03   -0.13313E-05    81   0.104E-02    0.383E-03
RMM:  11    -0.871876999448E+02   -0.75673E-04   -0.10471E-05    84   0.980E-03    0.214E-03
RMM:  12    -0.871877532275E+02   -0.53283E-04   -0.35740E-06    72   0.577E-03    0.941E-04
RMM:  13    -0.871877827633E+02   -0.29536E-04   -0.13314E-06    65   0.312E-03    0.380E-04
RMM:  14    -0.871877975554E+02   -0.14792E-04   -0.81640E-07    62   0.245E-03    0.286E-04
RMM:  15    -0.871878064327E+02   -0.88773E-05   -0.30152E-07    62   0.175E-03    0.164E-04
RMM:  16    -0.871878103008E+02   -0.38680E-05   -0.12467E-07    60   0.125E-03    0.777E-05
RMM:  17    -0.871878122341E+02   -0.19334E-05   -0.29016E-08    51   0.943E-04    0.608E-05
RMM:  18    -0.871878133678E+02   -0.11337E-05   -0.41691E-09    42   0.895E-04    0.433E-05
RMM:  19    -0.871878138220E+02   -0.45417E-06   -0.62581E-09    47   0.896E-04
  39 F= -.87187814E+02 E0= -.87187814E+02  d E =-.176646E-10
       N       E                     dE             d eps       ncg     rms          rms(c)
DAV:   1    -0.872130884831E+02   -0.25275E-01   -0.10175E+00    76   0.590E+00    0.864E-01
RMM:   2    -0.871929826050E+02    0.20106E-01   -0.61030E-02    86   0.131E+00    0.535E-01
RMM:   3    -0.871820419022E+02    0.10941E-01   -0.37335E-02    94   0.749E-01    0.121E-01
RMM:   4    -0.871816401164E+02    0.40179E-03   -0.14557E-03    96   0.141E-01    0.671E-02
RMM:   5    -0.871815745003E+02    0.65616E-04   -0.66543E-04    93   0.102E-01    0.311E-02
RMM:   6    -0.871817253411E+02   -0.15084E-03   -0.46588E-04    92   0.770E-02    0.314E-02
RMM:   7    -0.871818817671E+02   -0.15643E-03   -0.17284E-04    88   0.539E-02    0.111E-02
RMM:   8    -0.871823739217E+02   -0.49215E-03   -0.14434E-04    77   0.383E-02    0.191E-02
RMM:   9    -0.871824917112E+02   -0.11779E-03   -0.88759E-05    94   0.333E-02    0.433E-03
RMM:  10    -0.871826438712E+02   -0.15216E-03   -0.15888E-05    83   0.114E-02    0.485E-03
RMM:  11    -0.871827158319E+02   -0.71961E-04   -0.84781E-06    82   0.812E-03    0.136E-03
RMM:  12    -0.871827683444E+02   -0.52513E-04   -0.27504E-06    70   0.438E-03    0.954E-04
RMM:  13    -0.871827968464E+02   -0.28502E-04   -0.15022E-06    66   0.351E-03    0.454E-04
RMM:  14    -0.871828104745E+02   -0.13628E-04   -0.81014E-07    64   0.248E-03    0.530E-04
RMM:  15    -0.871828188443E+02   -0.83698E-05   -0.28484E-07    61   0.177E-03    0.152E-04
RMM:  16    -0.871828221514E+02   -0.33072E-05   -0.12858E-07    63   0.135E-03    0.148E-04
RMM:  17    -0.871828239025E+02   -0.17511E-05   -0.19192E-08    50   0.852E-04    0.383E-05
RMM:  18    -0.871828250112E+02   -0.11087E-05   -0.11946E-08    47   0.888E-04    0.487E-05
RMM:  19    -0.871828253318E+02   -0.32060E-06    0.00000E+00    46   0.795E-04
  40 F= -.87182825E+02 E0= -.87182825E+02  d E =-.198554E-10
       N       E                     dE             d eps       ncg     rms          rms(c)
DAV:   1    -0.872122065418E+02   -0.29382E-01   -0.99777E-01    76   0.590E+00    0.846E-01
RMM:   2    -0.871927508462E+02    0.19456E-01   -0.58966E-02    87   0.130E+00    0.531E-01
RMM:   3    -0.871818960084E+02    0.10855E-01   -0.41028E-02    94   0.783E-01    0.132E-01
RMM:   4    -0.871814829582E+02    0.41305E-03   -0.14020E-03    96   0.142E-01    0.774E-02
RMM:   5    -0.871814445289E+02    0.38429E-04   -0.10674E-03    93   0.134E-01    0.366E-02
RMM:   6    -0.871815612804E+02   -0.11675E-03   -0.61948E-04    93   0.930E-02    0.359E-02
RMM:   7    -0.871817068796E+02   -0.14560E-03   -0.17523E-04    86   0.560E-02    0.961E-03
RMM:   8    -0.871821815230E+02   -0.47464E-03   -0.20818E-04    78   0.513E-02    0.267E-02
RMM:   9    -0.871823084087E+02   -0.12689E-03   -0.13003E-04    92   0.422E-02    0.327E-03
RMM:  10    -0.871824697191E+02   -0.16131E-03   -0.21398E-05    81   0.133E-02    0.353E-03
RMM:  11    -0.871825372303E+02   -0.67511E-04   -0.70753E-06    77   0.597E-03    0.269E-03
RMM:  12    -0.871825795102E+02   -0.42280E-04   -0.22398E-06    70   0.444E-03    0.111E-03
RMM:  13    -0.871826058279E+02   -0.26318E-04   -0.21306E-06    70   0.455E-03    0.886E-04
RMM:  14    -0.871826177062E+02   -0.11878E-04   -0.57330E-07    65   0.230E-03    0.687E-04
RMM:  15    -0.871826241810E+02   -0.64748E-05   -0.26096E-07    68   0.177E-03    0.235E-04
RMM:  16    -0.871826288301E+02   -0.46491E-05   -0.12639E-07    55   0.126E-03    0.113E-04
RMM:  17    -0.871826301710E+02   -0.13409E-05   -0.44984E-08    55   0.105E-03    0.946E-05
RMM:  18    -0.871826310106E+02   -0.83962E-06   -0.82864E-09    47   0.869E-04
  41 F= -.87182631E+02 E0= -.87182631E+02  d E =-.162456E-10
       N       E                     dE             d eps       ncg     rms          rms(c)
DAV:   1    -0.872220917689E+02   -0.39462E-01   -0.10040E+00    76   0.596E+00    0.846E-01
RMM:   2    -0.872024887111E+02    0.19603E-01   -0.59658E-02    87   0.131E+00    0.536E-01
RMM:   3    -0.871916940688E+02    0.10795E-01   -0.46188E-02    94   0.825E-01    0.151E-01
RMM:   4    -0.871912092723E+02    0.48480E-03   -0.13642E-03    96   0.146E-01    0.881E-02
RMM:   5    -0.871911872073E+02    0.22065E-04   -0.16431E-03    92   0.166E-01    0.439E-02
RMM:   6    -0.871912661483E+02   -0.78941E-04   -0.82306E-04    93   0.110E-01    0.406E-02
RMM:   7    -0.871914154587E+02   -0.14931E-03   -0.20008E-04    86   0.606E-02    0.960E-03
RMM:   8    -0.871918288455E+02   -0.41339E-03   -0.25300E-04    78   0.589E-02    0.317E-02
RMM:   9    -0.871920035100E+02   -0.17466E-03   -0.18239E-04    87   0.499E-02    0.321E-03
RMM:  10    -0.871921361396E+02   -0.13263E-03   -0.18634E-05    85   0.131E-02    0.282E-03
RMM:  11    -0.871922254150E+02   -0.89275E-04   -0.99615E-06    77   0.718E-03    0.235E-03
RMM:  12    -0.871922583641E+02   -0.32949E-04   -0.14858E-06    72   0.331E-03    0.182E-03
RMM:  13    -0.871922923100E+02   -0.33946E-04   -0.37066E-06    73   0.579E-03    0.102E-03
RMM:  14    -0.871923024939E+02   -0.10184E-04   -0.41296E-07    70   0.230E-03    0.375E-04
RMM:  15    -0.871923088342E+02   -0.63403E-05   -0.20372E-07    55   0.145E-03    0.230E-04
RMM:  16    -0.871923125682E+02   -0.37340E-05   -0.97536E-08    60   0.124E-03    0.204E-04
RMM:  17    -0.871923147348E+02   -0.21665E-05   -0.40999E-08    52   0.111E-03    0.742E-05
RMM:  18    -0.871923154348E+02   -0.70006E-06   -0.37769E-08    60   0.103E-03
  42 F= -.87192315E+02 E0= -.87192315E+02  d E =-.144356E-10
       N       E                     dE             d eps       ncg     rms          rms(c)
DAV:   1    -0.872392149286E+02   -0.46900E-01   -0.10365E+00    76   0.607E+00    0.865E-01
RMM:   2    -0.872188759957E+02    0.20339E-01   -0.63160E-02    87   0.135E+00    0.547E-01
RMM:   3    -0.872080530989E+02    0.10823E-01   -0.50543E-02    94   0.857E-01    0.169E-01
RMM:   4    -0.872074699977E+02    0.58310E-03   -0.14234E-03    96   0.155E-01    0.946E-02
RMM:   5    -0.872074555495E+02    0.14448E-04   -0.20699E-03    92   0.183E-01    0.495E-02
RMM:   6    -0.872075138537E+02   -0.58304E-04   -0.10108E-03    94   0.123E-01    0.444E-02
[...]
RMM:  16    -0.871416755759E+02   -0.50422E-05   -0.21069E-07    62   0.175E-03    0.140E-04
RMM:  17    -0.871416765825E+02   -0.10066E-05   -0.29985E-08    51   0.783E-04    0.905E-05
RMM:  18    -0.871416779462E+02   -0.13637E-05   -0.69905E-09    41   0.747E-04    0.394E-05
RMM:  19    -0.871416784565E+02   -0.51031E-06    0.00000E+00    47   0.742E-04
 490 F= -.87141678E+02 E0= -.87141678E+02  d E =-.173310E-12
       N       E                     dE             d eps       ncg     rms          rms(c)
DAV:   1    -0.871728207548E+02   -0.31143E-01   -0.86005E-01    76   0.539E+00    0.785E-01
RMM:   2    -0.871551717401E+02    0.17649E-01   -0.48052E-02    86   0.116E+00    0.487E-01
RMM:   3    -0.871461733318E+02    0.89984E-02   -0.38589E-02    94   0.734E-01    0.142E-01
RMM:   4    -0.871457661832E+02    0.40715E-03   -0.11341E-03    95   0.133E-01    0.753E-02
RMM:   5    -0.871458113572E+02   -0.45174E-04   -0.11909E-03    93   0.132E-01    0.391E-02
RMM:   6    -0.871459651945E+02   -0.15384E-03   -0.90959E-04    94   0.110E-01    0.477E-02
RMM:   7    -0.871461300156E+02   -0.16482E-03   -0.34309E-04    83   0.750E-02    0.109E-02
RMM:   8    -0.871465738757E+02   -0.44386E-03   -0.21769E-04    82   0.509E-02    0.309E-02
RMM:   9    -0.871467038370E+02   -0.12996E-03   -0.15879E-04    90   0.452E-02    0.292E-03
RMM:  10    -0.871468088667E+02   -0.10503E-03   -0.18351E-05    88   0.127E-02    0.400E-03
RMM:  11    -0.871468929047E+02   -0.84038E-04   -0.66584E-06    78   0.700E-03    0.152E-03
RMM:  12    -0.871469348488E+02   -0.41944E-04   -0.28000E-06    74   0.389E-03    0.150E-03
RMM:  13    -0.871469672555E+02   -0.32407E-04   -0.20649E-06    72   0.374E-03    0.522E-04
RMM:  14    -0.871469806345E+02   -0.13379E-04   -0.72689E-07    69   0.277E-03    0.543E-04
RMM:  15    -0.871469859929E+02   -0.53584E-05   -0.27232E-07    61   0.164E-03    0.554E-04
RMM:  16    -0.871469916445E+02   -0.56517E-05   -0.20779E-07    62   0.175E-03    0.194E-04
RMM:  17    -0.871469924258E+02   -0.78123E-06   -0.29560E-08    51   0.760E-04
 491 F= -.87146992E+02 E0= -.87146992E+02  d E =-.344811E-13
       N       E                     dE             d eps       ncg     rms          rms(c)
DAV:   1    -0.871956513664E+02   -0.48660E-01   -0.89230E-01    88   0.552E+00    0.804E-01
RMM:   2    -0.871775279852E+02    0.18123E-01   -0.52119E-02    85   0.121E+00    0.495E-01
RMM:   3    -0.871684914133E+02    0.90366E-02   -0.37571E-02    94   0.733E-01    0.141E-01
RMM:   4    -0.871680858822E+02    0.40553E-03   -0.12104E-03    96   0.138E-01    0.726E-02
RMM:   5    -0.871681139758E+02   -0.28094E-04   -0.10130E-03    93   0.125E-01    0.371E-02
RMM:   6    -0.871682876172E+02   -0.17364E-03   -0.82695E-04    93   0.108E-01    0.460E-02
RMM:   7    -0.871684432294E+02   -0.15561E-03   -0.32148E-04    86   0.741E-02    0.105E-02
RMM:   8    -0.871688849268E+02   -0.44170E-03   -0.19559E-04    83   0.488E-02    0.283E-02
RMM:   9    -0.871690200527E+02   -0.13513E-03   -0.13996E-04    88   0.433E-02    0.294E-03
RMM:  10    -0.871691336664E+02   -0.11361E-03   -0.16922E-05    91   0.121E-02    0.319E-03
RMM:  11    -0.871692096839E+02   -0.76017E-04   -0.59296E-06    78   0.628E-03    0.135E-03
RMM:  12    -0.871692526937E+02   -0.43010E-04   -0.29647E-06    77   0.399E-03    0.158E-03
RMM:  13    -0.871692807321E+02   -0.28038E-04   -0.16383E-06    71   0.351E-03    0.482E-04
RMM:  14    -0.871692940248E+02   -0.13293E-04   -0.72551E-07    70   0.270E-03    0.500E-04
RMM:  15    -0.871692995753E+02   -0.55505E-05   -0.26023E-07    60   0.153E-03    0.441E-04
RMM:  16    -0.871693047946E+02   -0.52193E-05   -0.17777E-07    62   0.161E-03    0.159E-04
RMM:  17    -0.871693056640E+02   -0.86933E-06   -0.28409E-08    52   0.740E-04
 492 F= -.87169306E+02 E0= -.87169306E+02  d E =-.426062E-14
       N       E                     dE             d eps       ncg     rms          rms(c)
DAV:   1    -0.872264537795E+02   -0.57149E-01   -0.95614E-01    88   0.576E+00    0.840E-01
RMM:   2    -0.872074569253E+02    0.18997E-01   -0.59352E-02    87   0.129E+00    0.516E-01
RMM:   3    -0.871981797890E+02    0.92771E-02   -0.37973E-02    94   0.745E-01    0.147E-01
RMM:   4    -0.871977411686E+02    0.43862E-03   -0.13476E-03    96   0.146E-01    0.734E-02
RMM:   5    -0.871977544682E+02   -0.13300E-04   -0.97055E-04    93   0.124E-01    0.370E-02
RMM:   6    -0.871979424560E+02   -0.18799E-03   -0.78831E-04    93   0.108E-01    0.451E-02
RMM:   7    -0.871980889205E+02   -0.14646E-03   -0.30275E-04    88   0.727E-02    0.988E-03
RMM:   8    -0.871985294057E+02   -0.44049E-03   -0.19244E-04    82   0.489E-02    0.276E-02
RMM:   9    -0.871986707030E+02   -0.14130E-03   -0.12876E-04    87   0.422E-02    0.301E-03
RMM:  10    -0.871988054838E+02   -0.13478E-03   -0.21500E-05    90   0.132E-02    0.273E-03
RMM:  11    -0.871988693524E+02   -0.63869E-04   -0.53154E-06    76   0.558E-03    0.177E-03
RMM:  12    -0.871989098747E+02   -0.40522E-04   -0.19291E-06    72   0.352E-03    0.157E-03
RMM:  13    -0.871989382669E+02   -0.28392E-04   -0.21641E-06    73   0.414E-03    0.384E-04
RMM:  14    -0.871989468814E+02   -0.86145E-05   -0.42977E-07    67   0.216E-03    0.453E-04
RMM:  15    -0.871989531798E+02   -0.62984E-05   -0.20637E-07    60   0.150E-03    0.396E-04
RMM:  16    -0.871989568227E+02   -0.36429E-05   -0.11329E-07    63   0.136E-03    0.800E-05
RMM:  17    -0.871989580178E+02   -0.11951E-05   -0.26777E-08    52   0.893E-04    0.853E-05
RMM:  18    -0.871989588418E+02   -0.82403E-06    0.00000E+00    45   0.731E-04
 493 F= -.87198959E+02 E0= -.87198959E+02  d E =-.755620E-11
       N       E                     dE             d eps       ncg     rms          rms(c)
DAV:   1    -0.872515754041E+02   -0.52617E-01   -0.10258E+00    84   0.601E+00    0.880E-01
RMM:   2    -0.872315346101E+02    0.20041E-01   -0.66567E-02    87   0.136E+00    0.539E-01
RMM:   3    -0.872219230536E+02    0.96116E-02   -0.39172E-02    94   0.761E-01    0.154E-01
RMM:   4    -0.872214503989E+02    0.47265E-03   -0.14795E-03    96   0.154E-01    0.750E-02
RMM:   5    -0.872214527076E+02   -0.23088E-05   -0.95267E-04    93   0.122E-01    0.370E-02
RMM:   6    -0.872216503164E+02   -0.19761E-03   -0.76025E-04    92   0.106E-01    0.445E-02
RMM:   7    -0.872217922789E+02   -0.14196E-03   -0.29765E-04    88   0.719E-02    0.974E-03
RMM:   8    -0.872222264891E+02   -0.43421E-03   -0.18193E-04    82   0.473E-02    0.265E-02
RMM:   9    -0.872223751896E+02   -0.14870E-03   -0.12020E-04    87   0.405E-02    0.311E-03
RMM:  10    -0.872225196119E+02   -0.14442E-03   -0.23219E-05    88   0.137E-02    0.284E-03
RMM:  11    -0.872225793584E+02   -0.59747E-04   -0.54898E-06    76   0.559E-03    0.205E-03
RMM:  12    -0.872226204787E+02   -0.41120E-04   -0.20479E-06    72   0.369E-03    0.134E-03
RMM:  13    -0.872226460207E+02   -0.25542E-04   -0.19336E-06    72   0.407E-03    0.506E-04
RMM:  14    -0.872226543000E+02   -0.82793E-05   -0.41706E-07    65   0.206E-03    0.504E-04
RMM:  15    -0.872226614816E+02   -0.71816E-05   -0.20730E-07    59   0.154E-03    0.286E-04
RMM:  16    -0.872226642183E+02   -0.27367E-05   -0.90885E-08    61   0.123E-03    0.708E-05
RMM:  17    -0.872226658314E+02   -0.16131E-05   -0.42838E-08    54   0.104E-03    0.151E-04
RMM:  18    -0.872226664806E+02   -0.64919E-06    0.00000E+00    45   0.739E-04
 494 F= -.87222666E+02 E0= -.87222666E+02  d E =-.379694E-12
       N       E                     dE             d eps       ncg     rms          rms(c)
DAV:   1    -0.872583927486E+02   -0.35727E-01   -0.10708E+00    88   0.616E+00    0.910E-01
RMM:   2    -0.872374229961E+02    0.20970E-01   -0.71252E-02    88   0.139E+00    0.554E-01
RMM:   3    -0.872275842626E+02    0.98387E-02   -0.39058E-02    94   0.763E-01    0.156E-01
RMM:   4    -0.872271028331E+02    0.48143E-03   -0.15699E-03    96   0.159E-01    0.741E-02
RMM:   5    -0.872270947308E+02    0.81023E-05   -0.84492E-04    93   0.114E-01    0.356E-02
RMM:   6    -0.872273046186E+02   -0.20989E-03   -0.67441E-04    92   0.989E-02    0.421E-02
RMM:   7    -0.872274455620E+02   -0.14094E-03   -0.28494E-04    89   0.697E-02    0.102E-02
RMM:   8    -0.872278764854E+02   -0.43092E-03   -0.15745E-04    81   0.431E-02    0.242E-02
RMM:   9    -0.872280235853E+02   -0.14710E-03   -0.10604E-04    89   0.375E-02    0.305E-03
RMM:  10    -0.872281712297E+02   -0.14764E-03   -0.22712E-05    86   0.133E-02    0.306E-03
RMM:  11    -0.872282285498E+02   -0.57320E-04   -0.52553E-06    79   0.552E-03    0.188E-03
RMM:  12    -0.872282692542E+02   -0.40704E-04   -0.19224E-06    69   0.365E-03    0.118E-03
RMM:  13    -0.872282966851E+02   -0.27431E-04   -0.21659E-06    72   0.429E-03    0.687E-04
RMM:  14    -0.872283045755E+02   -0.78904E-05   -0.38052E-07    65   0.196E-03    0.466E-04
RMM:  15    -0.872283112757E+02   -0.67002E-05   -0.21930E-07    61   0.165E-03    0.138E-04
RMM:  16    -0.872283139164E+02   -0.26407E-05   -0.74713E-08    59   0.109E-03    0.642E-05
RMM:  17    -0.872283152570E+02   -0.13406E-05   -0.16454E-08    50   0.904E-04    0.655E-05
RMM:  18    -0.872283160426E+02   -0.78561E-06   -0.13228E-08    49   0.848E-04
 495 F= -.87228316E+02 E0= -.87228316E+02  d E =-.141498E-13
       N       E                     dE             d eps       ncg     rms          rms(c)
DAV:   1    -0.872408342246E+02   -0.12519E-01   -0.10643E+00    88   0.616E+00    0.914E-01
RMM:   2    -0.872197764843E+02    0.21058E-01   -0.71195E-02    88   0.139E+00    0.557E-01
RMM:   3    -0.872098637804E+02    0.99127E-02   -0.38306E-02    94   0.759E-01    0.152E-01
RMM:   4    -0.872093978111E+02    0.46597E-03   -0.15594E-03    96   0.158E-01    0.721E-02
RMM:   5    -0.872093876756E+02    0.10136E-04   -0.78040E-04    93   0.109E-01    0.345E-02
RMM:   6    -0.872096017159E+02   -0.21404E-03   -0.61976E-04    90   0.946E-02    0.405E-02
RMM:   7    -0.872097417482E+02   -0.14003E-03   -0.27420E-04    88   0.681E-02    0.105E-02
RMM:   8    -0.872101691136E+02   -0.42737E-03   -0.14732E-04    80   0.407E-02    0.231E-02
RMM:   9    -0.872103118480E+02   -0.14273E-03   -0.10104E-04    88   0.365E-02    0.312E-03
RMM:  10    -0.872104325253E+02   -0.12068E-03   -0.14788E-05    88   0.108E-02    0.234E-03
RMM:  11    -0.872105170674E+02   -0.84542E-04   -0.72303E-06    79   0.649E-03    0.148E-03
RMM:  12    -0.872105516605E+02   -0.34593E-04   -0.22380E-06    73   0.353E-03    0.101E-03
RMM:  13    -0.872105794868E+02   -0.27826E-04   -0.17778E-06    72   0.333E-03    0.379E-04
RMM:  14    -0.872105924975E+02   -0.13011E-04   -0.62047E-07    66   0.239E-03    0.400E-04
RMM:  15    -0.872105973374E+02   -0.48400E-05   -0.21417E-07    60   0.148E-03    0.330E-04
RMM:  16    -0.872106019478E+02   -0.46104E-05   -0.13992E-07    60   0.146E-03    0.114E-04
RMM:  17    -0.872106027875E+02   -0.83974E-06   -0.21498E-08    50   0.763E-04
 496 F= -.87210603E+02 E0= -.87210603E+02  d E =-.745763E-11
       N       E                     dE             d eps       ncg     rms          rms(c)
DAV:   1    -0.872045417513E+02    0.60602E-02   -0.10029E+00    88   0.599E+00    0.888E-01
RMM:   2    -0.871843751993E+02    0.20167E-01   -0.65788E-02    88   0.134E+00    0.546E-01
RMM:   3    -0.871745447992E+02    0.98304E-02   -0.36608E-02    94   0.743E-01    0.140E-01
RMM:   4    -0.871741343882E+02    0.41041E-03   -0.14347E-03    96   0.149E-01    0.681E-02
RMM:   5    -0.871741339461E+02    0.44206E-06   -0.71766E-04    93   0.105E-01    0.330E-02
RMM:   6    -0.871743450004E+02   -0.21105E-03   -0.57333E-04    89   0.912E-02    0.388E-02
RMM:   7    -0.871744830067E+02   -0.13801E-03   -0.25267E-04    86   0.656E-02    0.103E-02
RMM:   8    -0.871749107681E+02   -0.42776E-03   -0.14414E-04    81   0.405E-02    0.224E-02
RMM:   9    -0.871750476072E+02   -0.13684E-03   -0.95870E-05    91   0.356E-02    0.304E-03
RMM:  10    -0.871751866880E+02   -0.13908E-03   -0.18968E-05    84   0.119E-02    0.256E-03
RMM:  11    -0.871752508817E+02   -0.64194E-04   -0.63027E-06    77   0.586E-03    0.167E-03
RMM:  12    -0.871752894319E+02   -0.38550E-04   -0.16862E-06    72   0.345E-03    0.104E-03
RMM:  13    -0.871753131107E+02   -0.23679E-04   -0.14976E-06    70   0.347E-03    0.404E-04
RMM:  14    -0.871753233810E+02   -0.10270E-04   -0.49680E-07    65   0.213E-03    0.421E-04
RMM:  15    -0.871753288865E+02   -0.55055E-05   -0.18754E-07    55   0.143E-03    0.267E-04
RMM:  16    -0.871753322222E+02   -0.33356E-05   -0.11992E-07    66   0.144E-03    0.143E-04
RMM:  17    -0.871753330303E+02   -0.80810E-06   -0.14619E-08    49   0.731E-04
 497 F= -.87175333E+02 E0= -.87175333E+02  d E =-.968500E-12
       N       E                     dE             d eps       ncg     rms          rms(c)
DAV:   1    -0.871666483013E+02    0.86839E-02   -0.91339E-01    84   0.572E+00    0.842E-01
RMM:   2    -0.871479364853E+02    0.18712E-01   -0.57223E-02    87   0.125E+00    0.525E-01
RMM:   3    -0.871382321823E+02    0.97043E-02   -0.34325E-02    94   0.719E-01    0.120E-01
RMM:   4    -0.871379132690E+02    0.31891E-03   -0.12667E-03    95   0.134E-01    0.631E-02
RMM:   5    -0.871379378798E+02   -0.24611E-04   -0.62695E-04    93   0.995E-02    0.309E-02
RMM:   6    -0.871381396713E+02   -0.20179E-03   -0.49497E-04    90   0.840E-02    0.349E-02
RMM:   7    -0.871382785850E+02   -0.13891E-03   -0.20028E-04    85   0.588E-02    0.977E-03
RMM:   8    -0.871387166779E+02   -0.43809E-03   -0.14822E-04    80   0.411E-02    0.218E-02
RMM:   9    -0.871388358572E+02   -0.11918E-03   -0.91344E-05    92   0.349E-02    0.309E-03
RMM:  10    -0.871389652977E+02   -0.12944E-03   -0.17090E-05    87   0.113E-02    0.252E-03
RMM:  11    -0.871390351805E+02   -0.69883E-04   -0.67891E-06    81   0.608E-03    0.177E-03
RMM:  12    -0.871390701837E+02   -0.35003E-04   -0.15188E-06    71   0.342E-03    0.102E-03
RMM:  13    -0.871390947158E+02   -0.24532E-04   -0.14368E-06    69   0.328E-03    0.388E-04
RMM:  14    -0.871391044881E+02   -0.97723E-05   -0.51548E-07    65   0.216E-03    0.374E-04
RMM:  15    -0.871391109146E+02   -0.64265E-05   -0.21758E-07    58   0.153E-03    0.312E-04
RMM:  16    -0.871391138682E+02   -0.29536E-05   -0.89607E-08    62   0.124E-03    0.769E-05
RMM:  17    -0.871391153172E+02   -0.14490E-05   -0.39071E-08    55   0.990E-04    0.130E-04
RMM:  18    -0.871391157663E+02   -0.44914E-06    0.00000E+00    45   0.661E-04
 498 F= -.87139116E+02 E0= -.87139116E+02  d E =-.188736E-12
       N       E                     dE             d eps       ncg     rms          rms(c)
DAV:   1    -0.871484531194E+02   -0.93378E-02   -0.84675E-01    76   0.548E+00    0.804E-01
RMM:   2    -0.871308373856E+02    0.17616E-01   -0.49857E-02    89   0.117E+00    0.508E-01
RMM:   3    -0.871210993872E+02    0.97380E-02   -0.32670E-02    94   0.701E-01    0.962E-02
RMM:   4    -0.871208914008E+02    0.20799E-03   -0.11364E-03    95   0.121E-01    0.594E-02
RMM:   5    -0.871209603926E+02   -0.68992E-04   -0.53731E-04    93   0.954E-02    0.288E-02
RMM:   6    -0.871211319848E+02   -0.17159E-03   -0.37024E-04    90   0.694E-02    0.255E-02
RMM:   7    -0.871212915396E+02   -0.15955E-03   -0.11442E-04    88   0.445E-02    0.958E-03
RMM:   8    -0.871217421436E+02   -0.45060E-03   -0.13087E-04    78   0.373E-02    0.179E-02
RMM:   9    -0.871218427503E+02   -0.10061E-03   -0.82198E-05    92   0.317E-02    0.430E-03
RMM:  10    -0.871219602679E+02   -0.11752E-03   -0.12446E-05    81   0.978E-03    0.279E-03
RMM:  11    -0.871220325534E+02   -0.72286E-04   -0.80124E-06    78   0.725E-03    0.153E-03
RMM:  12    -0.871220650709E+02   -0.32517E-04   -0.21124E-06    74   0.377E-03    0.919E-04
RMM:  13    -0.871220894813E+02   -0.24410E-04   -0.14233E-06    70   0.328E-03    0.443E-04
RMM:  14    -0.871220980174E+02   -0.85360E-05   -0.41989E-07    65   0.203E-03    0.401E-04
RMM:  15    -0.871221044947E+02   -0.64773E-05   -0.17578E-07    59   0.146E-03    0.201E-04
RMM:  16    -0.871221070102E+02   -0.25154E-05   -0.81037E-08    64   0.121E-03    0.729E-05
RMM:  17    -0.871221083548E+02   -0.13446E-05   -0.83388E-09    47   0.750E-04    0.506E-05
RMM:  18    -0.871221091467E+02   -0.79196E-06   -0.65888E-09    44   0.779E-04
 499 F= -.87122109E+02 E0= -.87122109E+02  d E =-.577898E-13
       N       E                     dE             d eps       ncg     rms          rms(c)
DAV:   1    -0.871630641556E+02   -0.40956E-01   -0.84865E-01    76   0.549E+00    0.803E-01
RMM:   2    -0.871454374820E+02    0.17627E-01   -0.48239E-02    87   0.116E+00    0.510E-01
RMM:   3    -0.871353717238E+02    0.10066E-01   -0.33804E-02    93   0.719E-01    0.893E-02
RMM:   4    -0.871352188107E+02    0.15291E-03   -0.10801E-03    95   0.117E-01    0.609E-02
RMM:   5    -0.871353420765E+02   -0.12327E-03   -0.67399E-04    90   0.111E-01    0.342E-02
RMM:   6    -0.871354553436E+02   -0.11327E-03   -0.35694E-04    93   0.680E-02    0.184E-02
RMM:   7    -0.871356396397E+02   -0.18430E-03   -0.75656E-05    86   0.360E-02    0.103E-02
RMM:   8    -0.871360900188E+02   -0.45038E-03   -0.11676E-04    78   0.337E-02    0.142E-02
RMM:   9    -0.871361959207E+02   -0.10590E-03   -0.79723E-05    95   0.291E-02    0.579E-03
RMM:  10    -0.871363164391E+02   -0.12052E-03   -0.12135E-05    81   0.957E-03    0.351E-03
RMM:  11    -0.871363763807E+02   -0.59942E-04   -0.81531E-06    79   0.843E-03    0.124E-03
RMM:  12    -0.871364104057E+02   -0.34025E-04   -0.19792E-06    74   0.388E-03    0.550E-04
RMM:  13    -0.871364291598E+02   -0.18754E-04   -0.11223E-06    69   0.282E-03    0.504E-04
RMM:  14    -0.871364389701E+02   -0.98103E-05   -0.39710E-07    60   0.182E-03    0.358E-04
RMM:  15    -0.871364444349E+02   -0.54648E-05   -0.23748E-07    68   0.172E-03    0.243E-04
RMM:  16    -0.871364471657E+02   -0.27308E-05   -0.57952E-08    54   0.949E-04    0.108E-04
RMM:  17    -0.871364480584E+02   -0.89272E-06   -0.13610E-08    51   0.858E-04
 500 F= -.87136448E+02 E0= -.87136448E+02  d E =-.253934E-13
       N       E                     dE             d eps       ncg     rms          rms(c)
DAV:   1    -0.872067728719E+02   -0.70326E-01   -0.92987E-01    76   0.580E+00    0.846E-01
RMM:   2    -0.871878067457E+02    0.18966E-01   -0.53856E-02    87   0.124E+00    0.536E-01
RMM:   3    -0.871771627799E+02    0.10644E-01   -0.38135E-02    92   0.769E-01    0.110E-01
RMM:   4    -0.871769517221E+02    0.21106E-03   -0.11309E-03    95   0.126E-01    0.666E-02
RMM:   5    -0.871770443209E+02   -0.92599E-04   -0.77275E-04    92   0.115E-01    0.330E-02
RMM:   6    -0.871771951120E+02   -0.15079E-03   -0.50380E-04    92   0.810E-02    0.305E-02
RMM:   7    -0.871773642612E+02   -0.16915E-03   -0.15922E-04    86   0.533E-02    0.105E-02
RMM:   8    -0.871778033819E+02   -0.43912E-03   -0.13068E-04    80   0.386E-02    0.192E-02
RMM:   9    -0.871779190144E+02   -0.11563E-03   -0.98639E-05    88   0.339E-02    0.414E-03
RMM:  10    -0.871780404777E+02   -0.12146E-03   -0.16345E-05    85   0.106E-02    0.444E-03
RMM:  11    -0.871781082199E+02   -0.67742E-04   -0.83394E-06    80   0.853E-03    0.119E-03
RMM:  12    -0.871781400814E+02   -0.31861E-04   -0.19608E-06    75   0.365E-03    0.677E-04
RMM:  13    -0.871781664573E+02   -0.26376E-04   -0.15999E-06    71   0.343E-03    0.628E-04
RMM:  14    -0.871781750310E+02   -0.85737E-05   -0.31776E-07    61   0.176E-03    0.392E-04
RMM:  15    -0.871781803809E+02   -0.53499E-05   -0.17938E-07    65   0.152E-03    0.141E-04
RMM:  16    -0.871781839609E+02   -0.35800E-05   -0.63618E-08    56   0.107E-03    0.884E-05
RMM:  17    -0.871781850137E+02   -0.10528E-05   -0.17925E-08    53   0.944E-04    0.748E-05
RMM:  18    -0.871781858212E+02   -0.80743E-06    0.00000E+00    45   0.780E-04
 501 F= -.87178186E+02 E0= -.87178186E+02  d E =-.354700E-13
