PROCAR lm decomposed
# of k-points:    1         # of bands:   36         # of ions:   18

 k-point     1 :    0.00000000 0.00000000 0.00000000     weight = 1.00000000

band     1 # energy  -25.96526398 # occ.  2.00000000
 
ion      s     py     pz     px    dxy    dyz    dz2    dxz  x2-y2    tot
    1  0.007  0.000  0.000  0.000  0.000  0.000  0.000  0.000  0.000  0.007
    2  0.002  0.000  0.000  0.000  0.000  0.000  0.000  0.000  0.000  0.003
    3  0.000  0.000  0.000  0.000  0.000  0.000  0.000  0.000  0.000  0.000
    4  0.000  0.000  0.000  0.000  0.000  0.000  0.000  0.000  0.000  0.000
    5  0.000  0.000  0.000  0.000  0.000  0.000  0.000  0.000  0.000  0.000
    6  0.000  0.000  0.000  0.000  0.000  0.000  0.000  0.000  0.000  0.000
    7  0.107  0.018  0.002  0.003  0.000  0.000  0.000  0.000  0.000  0.130
    8  0.068  0.002  0.007  0.004  0.000  0.000  0.000  0.000  0.000  0.081
    9  0.000  0.000  0.000  0.000  0.000  0.000  0.000  0.000  0.000  0.000
   10  0.000  0.000  0.000  0.000  0.000  0.000  0.000  0.000  0.000  0.000
   11  0.000  0.000  0.000  0.000  0.000  0.000  0.000  0.000  0.000  0.001
   12  0.001  0.000  0.000  0.000  0.000  0.000  0.000  0.000  0.000  0.001
   13  0.022  0.001  0.000  0.000  0.000  0.000  0.000  0.000  0.000  0.023
   14  0.000  0.000  0.000  0.000  0.000  0.000  0.000  0.000  0.000  0.000
   15  0.000  0.000  0.000  0.000  0.000  0.000  0.000  0.000  0.000  0.000
   16  0.689  0.012  0.004  0.017  0.000  0.000  0.000  0.000  0.000  0.722
   17  0.001  0.000  0.000  0.000  0.000  0.000  0.000  0.000  0.000  0.001
   18  0.004  0.000  0.000  0.000  0.000  0.000  0.000  0.000  0.000  0.004
tot    0.901  0.033  0.013  0.025  0.000  0.000  0.000  0.000  0.000  0.972
 
band     2 # energy  -25.61938305 # occ.  2.00000000
 
ion      s     py     pz     px    dxy    dyz    dz2    dxz  x2-y2    tot
    1  0.001  0.000  0.000  0.000  0.000  0.000  0.000  0.000  0.000  0.001
    2  0.001  0.000  0.000  0.000  0.000  0.000  0.000  0.000  0.000  0.001
    3  0.001  0.000  0.000  0.000  0.000  0.000  0.000  0.000  0.000  0.001
    4  0.001  0.000  0.000  0.000  0.000  0.000  0.000  0.000  0.000  0.001
    5  0.000  0.000  0.000  0.000  0.000  0.000  0.000  0.000  0.000  0.000
    6  0.000  0.000  0.000  0.000  0.000  0.000  0.000  0.000  0.000  0.000
    7  0.001  0.000  0.000  0.000  0.000  0.000  0.000  0.000  0.000  0.001
    8  0.001  0.000  0.000  0.000  0.000  0.000  0.000  0.000  0.000  0.001
    9  0.000  0.000  0.000  0.000  0.000  0.000  0.000  0.000  0.000  0.001
   10  0.002  0.000  0.000  0.000  0.000  0.000  0.000  0.000  0.000  0.002
   11  0.063  0.008  0.003  0.000  0.000  0.000  0.000  0.000  0.000  0.075
   12  0.107  0.016  0.007  0.000  0.000  0.000  0.000  0.000  0.000  0.129
   13  0.009  0.000  0.000  0.000  0.000  0.000  0.000  0.000  0.000  0.009
   14  0.006  0.000  0.000  0.000  0.000  0.000  0.000  0.000  0.000  0.006
   15  0.000  0.000  0.000  0.000  0.000  0.000  0.000  0.000  0.000  0.000
   16  0.007  0.000  0.000  0.000  0.000  0.000  0.000  0.000  0.000  0.008
   17  0.005  0.000  0.000  0.000  0.000  0.000  0.000  0.000  0.000  0.005
   18  0.696  0.001  0.027  0.000  0.000  0.000  0.000  0.000  0.000  0.725
tot    0.900  0.026  0.037  0.001  0.000  0.000  0.000  0.000  0.000  0.964
 
band     3 # energy  -24.96855804 # occ.  2.00000000
 
ion      s     py     pz     px    dxy    dyz    dz2    dxz  x2-y2    tot
    1  0.000  0.000  0.000  0.000  0.000  0.000  0.000  0.000  0.000  0.000
    2  0.000  0.000  0.000  0.000  0.000  0.000  0.000  0.000  0.000  0.000
    3  0.086  0.000  0.008  0.009  0.000  0.000  0.000  0.000  0.000  0.103
    4  0.096  0.013  0.006  0.000  0.000  0.000  0.000  0.000  0.000  0.115
    5  0.001  0.000  0.000  0.000  0.000  0.000  0.000  0.000  0.000  0.001
    6  0.000  0.000  0.000  0.000  0.000  0.000  0.000  0.000  0.000  0.001
    7  0.000  0.000  0.000  0.000  0.000  0.000  0.000  0.000  0.000  0.000
    8  0.000  0.000  0.000  0.000  0.000  0.000  0.000  0.000  0.000  0.000
    9  0.000  0.000  0.000  0.000  0.000  0.000  0.000  0.000  0.000  0.000
   10  0.000  0.000  0.000  0.000  0.000  0.000  0.000  0.000  0.000  0.000
   11  0.001  0.000  0.000  0.000  0.000  0.000  0.000  0.000  0.000  0.001
   12  0.001  0.000  0.000  0.000  0.000  0.000  0.000  0.000  0.000  0.001
   13  0.001  0.000  0.000  0.000  0.000  0.000  0.000  0.000  0.000  0.001
   14  0.712  0.019  0.000  0.012  0.000  0.000  0.000  0.000  0.000  0.743
   15  0.004  0.000  0.000  0.000  0.000  0.000  0.000  0.000  0.000  0.004
   16  0.000  0.000  0.000  0.000  0.000  0.000  0.000  0.000  0.000  0.000
   17  0.000  0.000  0.000  0.000  0.000  0.000  0.000  0.000  0.000  0.000
   18  0.006  0.000  0.000  0.000  0.000  0.000  0.000  0.000  0.000  0.006
tot    0.908  0.032  0.015  0.022  0.000  0.000  0.000  0.000  0.000  0.977
 
band     4 # energy  -24.73992382 # occ.  2.00000000
 
ion      s     py     pz     px    dxy    dyz    dz2    dxz  x2-y2    tot
    1  0.062  0.004  0.003  0.006  0.000  0.000  0.000  0.000  0.000  0.075
    2  0.087  0.005  0.002  0.010  0.000  0.000  0.000  0.000  0.000  0.104
    3  0.000  0.000  0.000  0.000  0.000  0.000  0.000  0.000  0.000  0.000
    4  0.000  0.000  0.000  0.000  0.000  0.000  0.000  0.000  0.000  0.000
    5  0.000  0.000  0.000  0.000  0.000  0.000  0.000  0.000  0.000  0.000
    6  0.000  0.000  0.000  0.000  0.000  0.000  0.000  0.000  0.000  0.000
    7  0.004  0.001  0.000  0.000  0.000  0.000  0.000  0.000  0.000  0.005
    8  0.003  0.000  0.000  0.000  0.000  0.000  0.000  0.000  0.000  0.003
    9  0.000  0.000  0.000  0.000  0.000  0.000  0.000  0.000  0.000  0.000
   10  0.000  0.000  0.000  0.000  0.000  0.000  0.000  0.000  0.000  0.000
   11  0.000  0.000  0.000  0.000  0.000  0.000  0.000  0.000  0.000  0.001
   12  0.002  0.000  0.000  0.000  0.000  0.000  0.000  0.000  0.000  0.003
   13  0.692  0.024  0.000  0.001  0.000  0.000  0.000  0.000  0.000  0.717
   14  0.001  0.000  0.000  0.000  0.000  0.000  0.000  0.000  0.000  0.001
   15  0.000  0.000  0.000  0.000  0.000  0.000  0.000  0.000  0.000  0.000
   16  0.022  0.000  0.000  0.002  0.000  0.000  0.000  0.000  0.000  0.024
   17  0.003  0.000  0.000  0.000  0.000  0.000  0.000  0.000  0.000  0.003
   18  0.012  0.000  0.000  0.000  0.000  0.000  0.000  0.000  0.000  0.013
tot    0.888  0.034  0.006  0.019  0.000  0.000  0.000  0.000  0.000  0.947
 
band     5 # energy  -24.38064551 # occ.  2.00000000
 
ion      s     py     pz     px    dxy    dyz    dz2    dxz  x2-y2    tot
    1  0.000  0.000  0.000  0.000  0.000  0.000  0.000  0.000  0.000  0.000
    2  0.000  0.000  0.000  0.000  0.000  0.000  0.000  0.000  0.000  0.000
    3  0.000  0.000  0.000  0.000  0.000  0.000  0.000  0.000  0.000  0.000
    4  0.000  0.000  0.000  0.000  0.000  0.000  0.000  0.000  0.000  0.000
    5  0.000  0.000  0.000  0.000  0.000  0.000  0.000  0.000  0.000  0.000
    6  0.000  0.000  0.000  0.000  0.000  0.000  0.000  0.000  0.000  0.000
    7  0.000  0.000  0.000  0.000  0.000  0.000  0.000  0.000  0.000  0.000
    8  0.000  0.000  0.000  0.000  0.000  0.000  0.000  0.000  0.000  0.000
    9  0.083  0.002  0.008  0.005  0.000  0.000  0.000  0.000  0.000  0.098
   10  0.055  0.002  0.000  0.008  0.000  0.000  0.000  0.000  0.000  0.065
   11  0.001  0.000  0.000  0.000  0.000  0.000  0.000  0.000  0.000  0.001
   12  0.001  0.000  0.000  0.000  0.000  0.000  0.000  0.000  0.000  0.002
   13  0.001  0.000  0.000  0.000  0.000  0.000  0.000  0.000  0.000  0.002
   14  0.000  0.000  0.000  0.000  0.000  0.000  0.000  0.000  0.000  0.000
   15  0.000  0.000  0.000  0.000  0.000  0.000  0.000  0.000  0.000  0.000
   16  0.002  0.000  0.000  0.000  0.000  0.000  0.000  0.000  0.000  0.002
   17  0.713  0.012  0.014  0.001  0.000  0.000  0.000  0.000  0.000  0.740
   18  0.007  0.000  0.000  0.000  0.000  0.000  0.000  0.000  0.000  0.008
tot    0.864  0.016  0.023  0.014  0.000  0.000  0.000  0.000  0.000  0.917
 
band     6 # energy  -23.96541001 # occ.  2.00000000
 
ion      s     py     pz     px    dxy    dyz    dz2    dxz  x2-y2    tot
    1  0.000  0.000  0.000  0.000  0.000  0.000  0.000  0.000  0.000  0.000
    2  0.000  0.000  0.000  0.000  0.000  0.000  0.000  0.000  0.000  0.000
    3  0.001  0.000  0.000  0.000  0.000  0.000  0.000  0.000  0.000  0.001
    4  0.001  0.000  0.000  0.000  0.000  0.000  0.000  0.000  0.000  0.001
    5  0.073  0.003  0.003  0.008  0.000  0.000  0.000  0.000  0.000  0.087
    6  0.101  0.000  0.008  0.011  0.000  0.000  0.000  0.000  0.000  0.120
    7  0.000  0.000  0.000  0.000  0.000  0.000  0.000  0.000  0.000  0.000
    8  0.000  0.000  0.000  0.000  0.000  0.000  0.000  0.000  0.000  0.000
    9  0.000  0.000  0.000  0.000  0.000  0.000  0.000  0.000  0.000  0.000
   10  0.000  0.000  0.000  0.000  0.000  0.000  0.000  0.000  0.000  0.000
   11  0.000  0.000  0.000  0.000  0.000  0.000  0.000  0.000  0.000  0.000
   12  0.000  0.000  0.000  0.000  0.000  0.000  0.000  0.000  0.000  0.000
   13  0.000  0.000  0.000  0.000  0.000  0.000  0.000  0.000  0.000  0.000
   14  0.004  0.000  0.000  0.000  0.000  0.000  0.000  0.000  0.000  0.005
   15  0.708  0.002  0.034  0.000  0.000  0.000  0.000  0.000  0.000  0.745
   16  0.000  0.000  0.000  0.000  0.000  0.000  0.000  0.000  0.000  0.000
   17  0.000  0.000  0.000  0.000  0.000  0.000  0.000  0.000  0.000  0.000
   18  0.000  0.000  0.000  0.000  0.000  0.000  0.000  0.000  0.000  0.000
tot    0.888  0.007  0.045  0.019  0.000  0.000  0.000  0.000  0.000  0.959
 
band     7 # energy  -13.66283461 # occ.  2.00000000
 
ion      s     py     pz     px    dxy    dyz    dz2    dxz  x2-y2    tot
    1  0.004  0.001  0.000  0.000  0.000  0.000  0.000  0.000  0.000  0.004
    2  0.016  0.001  0.000  0.001  0.000  0.000  0.000  0.000  0.000  0.017
    3  0.001  0.000  0.000  0.000  0.000  0.000  0.000  0.000  0.000  0.001
    4  0.001  0.000  0.000  0.000  0.000  0.000  0.000  0.000  0.000  0.001
    5  0.000  0.000  0.000  0.000  0.000  0.000  0.000  0.000  0.000  0.000
    6  0.000  0.000  0.000  0.000  0.000  0.000  0.000  0.000  0.000  0.000
    7  0.046  0.004  0.000  0.003  0.000  0.000  0.000  0.000  0.000  0.052
    8  0.050  0.000  0.002  0.002  0.000  0.000  0.000  0.000  0.000  0.054
    9  0.003  0.000  0.000  0.000  0.000  0.000  0.000  0.000  0.000  0.003
   10  0.002  0.000  0.000  0.000  0.000  0.000  0.000  0.000  0.000  0.002
   11  0.090  0.002  0.005  0.000  0.000  0.000  0.000  0.000  0.000  0.097
   12  0.102  0.005  0.008  0.000  0.000  0.000  0.000  0.000  0.000  0.115
   13  0.000  0.011  0.007  0.023  0.000  0.000  0.000  0.000  0.000  0.041
   14  0.000  0.001  0.002  0.001  0.000  0.000  0.000  0.000  0.000  0.003
   15  0.000  0.000  0.000  0.000  0.000  0.000  0.000  0.000  0.000  0.000
   16  0.000  0.104  0.054  0.005  0.000  0.000  0.000  0.000  0.000  0.164
   17  0.000  0.000  0.002  0.005  0.000  0.000  0.000  0.000  0.000  0.007
   18  0.001  0.313  0.002  0.001  0.000  0.000  0.000  0.000  0.000  0.317
tot    0.315  0.441  0.082  0.042  0.000  0.000  0.000  0.000  0.000  0.880
 
band     8 # energy  -13.54442350 # occ.  2.00000000
 
ion      s     py     pz     px    dxy    dyz    dz2    dxz  x2-y2    tot
    1  0.000  0.000  0.000  0.000  0.000  0.000  0.000  0.000  0.000  0.000
    2  0.002  0.000  0.000  0.000  0.000  0.000  0.000  0.000  0.000  0.002
    3  0.001  0.000  0.000  0.000  0.000  0.000  0.000  0.000  0.000  0.001
    4  0.001  0.000  0.000  0.000  0.000  0.000  0.000  0.000  0.000  0.001
    5  0.000  0.000  0.000  0.000  0.000  0.000  0.000  0.000  0.000  0.000
    6  0.000  0.000  0.000  0.000  0.000  0.000  0.000  0.000  0.000  0.000
    7  0.110  0.010  0.000  0.005  0.000  0.000  0.000  0.000  0.000  0.126
    8  0.108  0.000  0.004  0.005  0.000  0.000  0.000  0.000  0.000  0.117
    9  0.000  0.000  0.000  0.000  0.000  0.000  0.000  0.000  0.000  0.000
   10  0.000  0.000  0.000  0.000  0.000  0.000  0.000  0.000  0.000  0.000
   11  0.046  0.001  0.002  0.000  0.000  0.000  0.000  0.000  0.000  0.050
   12  0.052  0.002  0.004  0.000  0.000  0.000  0.000  0.000  0.000  0.058
   13  0.000  0.004  0.000  0.001  0.000  0.000  0.000  0.000  0.000  0.006
   14  0.000  0.000  0.001  0.001  0.000  0.000  0.000  0.000  0.000  0.002
   15  0.000  0.000  0.000  0.000  0.000  0.000  0.000  0.000  0.000  0.000
   16  0.000  0.231  0.137  0.005  0.000  0.000  0.000  0.000  0.000  0.374
   17  0.000  0.001  0.000  0.000  0.000  0.000  0.000  0.000  0.000  0.001
   18  0.001  0.162  0.001  0.001  0.000  0.000  0.000  0.000  0.000  0.164
tot    0.321  0.413  0.150  0.020  0.000  0.000  0.000  0.000  0.000  0.903
 
band     9 # energy  -13.06428369 # occ.  2.00000000
 
ion      s     py     pz     px    dxy    dyz    dz2    dxz  x2-y2    tot
    1  0.002  0.000  0.000  0.000  0.000  0.000  0.000  0.000  0.000  0.002
    2  0.003  0.000  0.000  0.000  0.000  0.000  0.000  0.000  0.000  0.004
    3  0.163  0.001  0.005  0.011  0.000  0.000  0.000  0.000  0.000  0.180
    4  0.155  0.014  0.002  0.001  0.000  0.000  0.000  0.000  0.000  0.173
    5  0.002  0.000  0.000  0.000  0.000  0.000  0.000  0.000  0.000  0.002
    6  0.001  0.000  0.000  0.000  0.000  0.000  0.000  0.000  0.000  0.002
    7  0.000  0.000  0.000  0.000  0.000  0.000  0.000  0.000  0.000  0.000
    8  0.000  0.000  0.000  0.000  0.000  0.000  0.000  0.000  0.000  0.000
    9  0.000  0.000  0.000  0.000  0.000  0.000  0.000  0.000  0.000  0.000
   10  0.000  0.000  0.000  0.000  0.000  0.000  0.000  0.000  0.000  0.000
   11  0.003  0.000  0.000  0.000  0.000  0.000  0.000  0.000  0.000  0.004
   12  0.000  0.000  0.000  0.000  0.000  0.000  0.000  0.000  0.000  0.000
   13  0.000  0.000  0.002  0.007  0.000  0.000  0.000  0.000  0.000  0.009
   14  0.000  0.124  0.277  0.115  0.000  0.000  0.000  0.000  0.000  0.516
   15  0.000  0.001  0.000  0.003  0.000  0.000  0.000  0.000  0.000  0.004
   16  0.000  0.000  0.000  0.000  0.000  0.000  0.000  0.000  0.000  0.001
   17  0.000  0.000  0.000  0.000  0.000  0.000  0.000  0.000  0.000  0.000
   18  0.000  0.004  0.006  0.000  0.000  0.000  0.000  0.000  0.000  0.010
tot    0.331  0.145  0.294  0.138  0.000  0.000  0.000  0.000  0.000  0.908
 
band    10 # energy  -12.88826938 # occ.  2.00000000
 
ion      s     py     pz     px    dxy    dyz    dz2    dxz  x2-y2    tot
    1  0.147  0.006  0.002  0.002  0.000  0.000  0.000  0.000  0.000  0.157
    2  0.129  0.008  0.000  0.004  0.000  0.000  0.000  0.000  0.000  0.142
    3  0.002  0.000  0.000  0.000  0.000  0.000  0.000  0.000  0.000  0.002
    4  0.002  0.000  0.000  0.000  0.000  0.000  0.000  0.000  0.000  0.002
    5  0.000  0.000  0.000  0.000  0.000  0.000  0.000  0.000  0.000  0.000
    6  0.000  0.000  0.000  0.000  0.000  0.000  0.000  0.000  0.000  0.000
    7  0.008  0.002  0.000  0.000  0.000  0.000  0.000  0.000  0.000  0.010
    8  0.000  0.000  0.000  0.000  0.000  0.000  0.000  0.000  0.000  0.001
    9  0.000  0.000  0.000  0.000  0.000  0.000  0.000  0.000  0.000  0.000
   10  0.000  0.000  0.000  0.000  0.000  0.000  0.000  0.000  0.000  0.000
   11  0.008  0.001  0.001  0.000  0.000  0.000  0.000  0.000  0.000  0.009
   12  0.010  0.000  0.001  0.000  0.000  0.000  0.000  0.000  0.000  0.011
   13  0.000  0.001  0.100  0.345  0.000  0.000  0.000  0.000  0.000  0.446
   14  0.000  0.002  0.004  0.002  0.000  0.000  0.000  0.000  0.000  0.007
   15  0.000  0.000  0.000  0.000  0.000  0.000  0.000  0.000  0.000  0.000
   16  0.000  0.002  0.009  0.030  0.000  0.000  0.000  0.000  0.000  0.041
   17  0.000  0.000  0.000  0.000  0.000  0.000  0.000  0.000  0.000  0.001
   18  0.000  0.033  0.000  0.000  0.000  0.000  0.000  0.000  0.000  0.033
tot    0.307  0.055  0.116  0.384  0.000  0.000  0.000  0.000  0.000  0.861
 
band    11 # energy  -12.35705584 # occ.  2.00000000
 
ion      s     py     pz     px    dxy    dyz    dz2    dxz  x2-y2    tot
    1  0.000  0.000  0.000  0.000  0.000  0.000  0.000  0.000  0.000  0.000
    2  0.000  0.000  0.000  0.000  0.000  0.000  0.000  0.000  0.000  0.000
    3  0.000  0.000  0.000  0.000  0.000  0.000  0.000  0.000  0.000  0.000
    4  0.000  0.000  0.000  0.000  0.000  0.000  0.000  0.000  0.000  0.000
    5  0.000  0.000  0.000  0.000  0.000  0.000  0.000  0.000  0.000  0.000
    6  0.000  0.000  0.000  0.000  0.000  0.000  0.000  0.000  0.000  0.000
    7  0.000  0.000  0.000  0.000  0.000  0.000  0.000  0.000  0.000  0.001
    8  0.001  0.000  0.000  0.000  0.000  0.000  0.000  0.000  0.000  0.001
    9  0.142  0.004  0.007  0.001  0.000  0.000  0.000  0.000  0.000  0.154
   10  0.136  0.003  0.001  0.004  0.000  0.000  0.000  0.000  0.000  0.145
   11  0.007  0.001  0.000  0.000  0.000  0.000  0.000  0.000  0.000  0.008
   12  0.000  0.000  0.000  0.000  0.000  0.000  0.000  0.000  0.000  0.000
   13  0.000  0.001  0.000  0.000  0.000  0.000  0.000  0.000  0.000  0.001
   14  0.000  0.000  0.000  0.000  0.000  0.000  0.000  0.000  0.000  0.000
   15  0.000  0.000  0.000  0.000  0.000  0.000  0.000  0.000  0.000  0.000
   16  0.000  0.001  0.002  0.000  0.000  0.000  0.000  0.000  0.000  0.003
   17  0.001  0.001  0.110  0.366  0.000  0.000  0.000  0.000  0.000  0.478
   18  0.000  0.005  0.009  0.015  0.000  0.000  0.000  0.000  0.000  0.029
tot    0.288  0.016  0.129  0.387  0.000  0.000  0.000  0.000  0.000  0.821
 
band    12 # energy  -11.60956697 # occ.  2.00000000
 
ion      s     py     pz     px    dxy    dyz    dz2    dxz  x2-y2    tot
    1  0.000  0.000  0.000  0.000  0.000  0.000  0.000  0.000  0.000  0.000
    2  0.000  0.000  0.000  0.000  0.000  0.000  0.000  0.000  0.000  0.000
    3  0.000  0.000  0.000  0.000  0.000  0.000  0.000  0.000  0.000  0.000
    4  0.009  0.000  0.000  0.000  0.000  0.000  0.000  0.000  0.000  0.010
    5  0.145  0.002  0.007  0.002  0.000  0.000  0.000  0.000  0.000  0.157
    6  0.149  0.000  0.012  0.003  0.000  0.000  0.000  0.000  0.000  0.164
    7  0.000  0.000  0.000  0.000  0.000  0.000  0.000  0.000  0.000  0.000
    8  0.000  0.000  0.000  0.000  0.000  0.000  0.000  0.000  0.000  0.000
    9  0.000  0.000  0.000  0.000  0.000  0.000  0.000  0.000  0.000  0.000
   10  0.000  0.000  0.000  0.000  0.000  0.000  0.000  0.000  0.000  0.000
   11  0.000  0.000  0.000  0.000  0.000  0.000  0.000  0.000  0.000  0.000
   12  0.000  0.000  0.000  0.000  0.000  0.000  0.000  0.000  0.000  0.000
   13  0.000  0.000  0.000  0.000  0.000  0.000  0.000  0.000  0.000  0.000
   14  0.001  0.020  0.003  0.005  0.000  0.000  0.000  0.000  0.000  0.030
   15  0.000  0.074  0.010  0.414  0.000  0.000  0.000  0.000  0.000  0.499
   16  0.000  0.000  0.000  0.000  0.000  0.000  0.000  0.000  0.000  0.000
   17  0.000  0.000  0.000  0.000  0.000  0.000  0.000  0.000  0.000  0.000
   18  0.000  0.000  0.000  0.000  0.000  0.000  0.000  0.000  0.000  0.000
tot    0.304  0.098  0.032  0.425  0.000  0.000  0.000  0.000  0.000  0.859
 
band    13 # energy  -10.37033997 # occ.  2.00000000
 
ion      s     py     pz     px    dxy    dyz    dz2    dxz  x2-y2    tot
    1  0.008  0.001  0.000  0.000  0.000  0.000  0.000  0.000  0.000  0.009
    2  0.024  0.000  0.000  0.001  0.000  0.000  0.000  0.000  0.000  0.026
    3  0.000  0.000  0.000  0.000  0.000  0.000  0.000  0.000  0.000  0.000
    4  0.002  0.000  0.000  0.000  0.000  0.000  0.000  0.000  0.000  0.002
    5  0.000  0.000  0.000  0.000  0.000  0.000  0.000  0.000  0.000  0.000
    6  0.000  0.000  0.000  0.000  0.000  0.000  0.000  0.000  0.000  0.000
    7  0.020  0.002  0.001  0.001  0.000  0.000  0.000  0.000  0.000  0.024
    8  0.026  0.002  0.001  0.000  0.000  0.000  0.000  0.000  0.000  0.029
    9  0.007  0.000  0.000  0.000  0.000  0.000  0.000  0.000  0.000  0.008
   10  0.002  0.000  0.000  0.000  0.000  0.000  0.000  0.000  0.000  0.002
   11  0.008  0.000  0.001  0.000  0.000  0.000  0.000  0.000  0.000  0.009
   12  0.020  0.002  0.000  0.000  0.000  0.000  0.000  0.000  0.000  0.023
   13  0.019  0.105  0.000  0.018  0.000  0.000  0.000  0.000  0.000  0.142
   14  0.001  0.003  0.001  0.000  0.000  0.000  0.000  0.000  0.000  0.006
   15  0.000  0.000  0.000  0.000  0.000  0.000  0.000  0.000  0.000  0.000
   16  0.029  0.024  0.018  0.204  0.000  0.000  0.000  0.000  0.000  0.276
   17  0.004  0.017  0.014  0.001  0.000  0.000  0.000  0.000  0.000  0.035
   18  0.020  0.008  0.111  0.004  0.000  0.000  0.000  0.000  0.000  0.143
tot    0.190  0.165  0.148  0.230  0.000  0.000  0.000  0.000  0.000  0.733
 
band    14 # energy   -9.93309399 # occ.  2.00000000
 
ion      s     py     pz     px    dxy    dyz    dz2    dxz  x2-y2    tot
    1  0.002  0.001  0.001  0.001  0.000  0.000  0.000  0.000  0.000  0.004
    2  0.001  0.000  0.000  0.000  0.000  0.000  0.000  0.000  0.000  0.001
    3  0.000  0.000  0.000  0.000  0.000  0.000  0.000  0.000  0.000  0.001
    4  0.004  0.000  0.000  0.000  0.000  0.000  0.000  0.000  0.000  0.005
    5  0.000  0.000  0.000  0.000  0.000  0.000  0.000  0.000  0.000  0.000
    6  0.000  0.000  0.000  0.000  0.000  0.000  0.000  0.000  0.000  0.000
    7  0.020  0.002  0.002  0.000  0.000  0.000  0.000  0.000  0.000  0.024
    8  0.021  0.002  0.000  0.000  0.000  0.000  0.000  0.000  0.000  0.023
    9  0.006  0.000  0.000  0.000  0.000  0.000  0.000  0.000  0.000  0.006
   10  0.000  0.000  0.000  0.001  0.000  0.000  0.000  0.000  0.000  0.001
   11  0.028  0.002  0.000  0.000  0.000  0.000  0.000  0.000  0.000  0.031
   12  0.022  0.004  0.001  0.000  0.000  0.000  0.000  0.000  0.000  0.027
   13  0.000  0.008  0.002  0.008  0.000  0.000  0.000  0.000  0.000  0.019
   14  0.003  0.012  0.002  0.001  0.000  0.000  0.000  0.000  0.000  0.019
   15  0.000  0.000  0.000  0.001  0.000  0.000  0.000  0.000  0.000  0.001
   16  0.030  0.045  0.030  0.154  0.000  0.000  0.000  0.000  0.000  0.259
   17  0.004  0.000  0.013  0.005  0.000  0.000  0.000  0.000  0.000  0.022
   18  0.032  0.000  0.276  0.008  0.000  0.000  0.000  0.000  0.000  0.316
tot    0.173  0.077  0.328  0.179  0.000  0.000  0.000  0.000  0.000  0.758
 
band    15 # energy   -9.37119214 # occ.  2.00000000
 
ion      s     py     pz     px    dxy    dyz    dz2    dxz  x2-y2    tot
    1  0.024  0.000  0.000  0.001  0.000  0.000  0.000  0.000  0.000  0.026
    2  0.025  0.000  0.001  0.002  0.000  0.000  0.000  0.000  0.000  0.028
    3  0.000  0.000  0.000  0.000  0.000  0.000  0.000  0.000  0.000  0.000
    4  0.000  0.000  0.000  0.000  0.000  0.000  0.000  0.000  0.000  0.000
    5  0.000  0.000  0.000  0.000  0.000  0.000  0.000  0.000  0.000  0.000
    6  0.000  0.000  0.000  0.000  0.000  0.000  0.000  0.000  0.000  0.000
    7  0.001  0.000  0.001  0.000  0.000  0.000  0.000  0.000  0.000  0.003
    8  0.002  0.000  0.000  0.000  0.000  0.000  0.000  0.000  0.000  0.003
    9  0.021  0.000  0.000  0.002  0.000  0.000  0.000  0.000  0.000  0.023
   10  0.023  0.000  0.001  0.001  0.000  0.000  0.000  0.000  0.000  0.024
   11  0.002  0.003  0.001  0.000  0.000  0.000  0.000  0.000  0.000  0.006
   12  0.000  0.000  0.000  0.000  0.000  0.000  0.000  0.000  0.000  0.001
   13  0.032  0.244  0.003  0.002  0.000  0.000  0.000  0.000  0.000  0.282
   14  0.000  0.002  0.000  0.001  0.000  0.000  0.000  0.000  0.000  0.003
   15  0.000  0.000  0.000  0.000  0.000  0.000  0.000  0.000  0.000  0.000
   16  0.007  0.017  0.040  0.000  0.000  0.000  0.000  0.000  0.000  0.064
   17  0.027  0.119  0.072  0.011  0.000  0.000  0.000  0.000  0.000  0.229
   18  0.000  0.013  0.015  0.013  0.000  0.000  0.000  0.000  0.000  0.042
tot    0.166  0.400  0.134  0.034  0.000  0.000  0.000  0.000  0.000  0.734
 
band    16 # energy   -9.14151895 # occ.  2.00000000
 
ion      s     py     pz     px    dxy    dyz    dz2    dxz  x2-y2    tot
    1  0.002  0.000  0.000  0.000  0.000  0.000  0.000  0.000  0.000  0.003
    2  0.002  0.000  0.000  0.000  0.000  0.000  0.000  0.000  0.000  0.002
    3  0.026  0.002  0.002  0.000  0.000  0.000  0.000  0.000  0.000  0.030
    4  0.030  0.000  0.002  0.002  0.000  0.000  0.000  0.000  0.000  0.035
    5  0.001  0.000  0.001  0.000  0.000  0.000  0.000  0.000  0.000  0.003
    6  0.020  0.000  0.000  0.001  0.000  0.000  0.000  0.000  0.000  0.021
    7  0.002  0.000  0.000  0.000  0.000  0.000  0.000  0.000  0.000  0.002
    8  0.001  0.000  0.000  0.000  0.000  0.000  0.000  0.000  0.000  0.001
    9  0.010  0.000  0.000  0.001  0.000  0.000  0.000  0.000  0.000  0.011
   10  0.009  0.000  0.000  0.000  0.000  0.000  0.000  0.000  0.000  0.009
   11  0.001  0.000  0.000  0.000  0.000  0.000  0.000  0.000  0.000  0.001
   12  0.000  0.000  0.000  0.000  0.000  0.000  0.000  0.000  0.000  0.000
   13  0.002  0.024  0.000  0.000  0.000  0.000  0.000  0.000  0.000  0.027
   14  0.041  0.177  0.001  0.151  0.000  0.000  0.000  0.000  0.000  0.370
   15  0.015  0.000  0.052  0.016  0.000  0.000  0.000  0.000  0.000  0.083
   16  0.002  0.010  0.005  0.007  0.000  0.000  0.000  0.000  0.000  0.025
   17  0.012  0.046  0.035  0.005  0.000  0.000  0.000  0.000  0.000  0.099
   18  0.000  0.004  0.006  0.016  0.000  0.000  0.000  0.000  0.000  0.025
tot    0.176  0.265  0.105  0.200  0.000  0.000  0.000  0.000  0.000  0.747
 
band    17 # energy   -8.91824955 # occ.  2.00000000
 
ion      s     py     pz     px    dxy    dyz    dz2    dxz  x2-y2    tot
    1  0.007  0.000  0.000  0.000  0.000  0.000  0.000  0.000  0.000  0.008
    2  0.007  0.000  0.000  0.001  0.000  0.000  0.000  0.000  0.000  0.008
    3  0.009  0.001  0.002  0.000  0.000  0.000  0.000  0.000  0.000  0.012
    4  0.004  0.000  0.001  0.001  0.000  0.000  0.000  0.000  0.000  0.006
    5  0.002  0.000  0.000  0.000  0.000  0.000  0.000  0.000  0.000  0.002
    6  0.009  0.000  0.000  0.000  0.000  0.000  0.000  0.000  0.000  0.010
    7  0.003  0.000  0.001  0.000  0.000  0.000  0.000  0.000  0.000  0.005
    8  0.002  0.001  0.000  0.000  0.000  0.000  0.000  0.000  0.000  0.002
    9  0.013  0.000  0.000  0.002  0.000  0.000  0.000  0.000  0.000  0.015
   10  0.019  0.000  0.000  0.002  0.000  0.000  0.000  0.000  0.000  0.021
   11  0.010  0.003  0.000  0.000  0.000  0.000  0.000  0.000  0.000  0.013
   12  0.004  0.001  0.001  0.000  0.000  0.000  0.000  0.000  0.000  0.007
   13  0.010  0.075  0.001  0.000  0.000  0.000  0.000  0.000  0.000  0.086
   14  0.008  0.038  0.002  0.062  0.000  0.000  0.000  0.000  0.000  0.110
   15  0.009  0.000  0.035  0.004  0.000  0.000  0.000  0.000  0.000  0.048
   16  0.004  0.027  0.019  0.007  0.000  0.000  0.000  0.000  0.000  0.057
   17  0.021  0.102  0.061  0.024  0.000  0.000  0.000  0.000  0.000  0.208
   18  0.011  0.006  0.129  0.002  0.000  0.000  0.000  0.000  0.000  0.149
tot    0.153  0.254  0.252  0.107  0.000  0.000  0.000  0.000  0.000  0.766
 
band    18 # energy   -8.29072985 # occ.  2.00000000
 
ion      s     py     pz     px    dxy    dyz    dz2    dxz  x2-y2    tot
    1  0.000  0.000  0.000  0.000  0.000  0.000  0.000  0.000  0.000  0.000
    2  0.000  0.000  0.000  0.000  0.000  0.000  0.000  0.000  0.000  0.000
    3  0.009  0.001  0.000  0.000  0.000  0.000  0.000  0.000  0.000  0.010
    4  0.006  0.000  0.001  0.000  0.000  0.000  0.000  0.000  0.000  0.008
    5  0.054  0.001  0.000  0.006  0.000  0.000  0.000  0.000  0.000  0.061
    6  0.030  0.001  0.000  0.004  0.000  0.000  0.000  0.000  0.000  0.036
    7  0.000  0.000  0.000  0.000  0.000  0.000  0.000  0.000  0.000  0.000
    8  0.000  0.000  0.000  0.000  0.000  0.000  0.000  0.000  0.000  0.000
    9  0.000  0.000  0.000  0.000  0.000  0.000  0.000  0.000  0.000  0.000
   10  0.000  0.000  0.000  0.000  0.000  0.000  0.000  0.000  0.000  0.001
   11  0.000  0.000  0.000  0.000  0.000  0.000  0.000  0.000  0.000  0.000
   12  0.000  0.000  0.000  0.000  0.000  0.000  0.000  0.000  0.000  0.001
   13  0.000  0.000  0.000  0.000  0.000  0.000  0.000  0.000  0.000  0.001
   14  0.014  0.061  0.007  0.027  0.000  0.000  0.000  0.000  0.000  0.109
   15  0.057  0.059  0.392  0.005  0.000  0.000  0.000  0.000  0.000  0.514
   16  0.000  0.000  0.001  0.000  0.000  0.000  0.000  0.000  0.000  0.001
   17  0.000  0.002  0.001  0.002  0.000  0.000  0.000  0.000  0.000  0.004
   18  0.001  0.000  0.002  0.010  0.000  0.000  0.000  0.000  0.000  0.013
tot    0.172  0.126  0.405  0.056  0.000  0.000  0.000  0.000  0.000  0.759
 
band    19 # energy   -7.89282852 # occ.  2.00000000
 
ion      s     py     pz     px    dxy    dyz    dz2    dxz  x2-y2    tot
    1  0.005  0.001  0.002  0.007  0.000  0.000  0.000  0.000  0.000  0.016
    2  0.000  0.001  0.000  0.000  0.000  0.000  0.000  0.000  0.000  0.002
    3  0.000  0.000  0.000  0.000  0.000  0.000  0.000  0.000  0.000  0.000
    4  0.000  0.000  0.000  0.000  0.000  0.000  0.000  0.000  0.000  0.000
    5  0.000  0.000  0.000  0.000  0.000  0.000  0.000  0.000  0.000  0.000
    6  0.000  0.000  0.000  0.000  0.000  0.000  0.000  0.000  0.000  0.000
    7  0.000  0.002  0.005  0.003  0.000  0.000  0.000  0.000  0.000  0.011
    8  0.000  0.001  0.003  0.002  0.000  0.000  0.000  0.000  0.000  0.007
    9  0.000  0.000  0.000  0.000  0.000  0.000  0.000  0.000  0.000  0.000
   10  0.000  0.000  0.000  0.000  0.000  0.000  0.000  0.000  0.000  0.000
   11  0.000  0.001  0.000  0.000  0.000  0.000  0.000  0.000  0.000  0.001
   12  0.000  0.000  0.000  0.000  0.000  0.000  0.000  0.000  0.000  0.000
   13  0.000  0.070  0.034  0.014  0.000  0.000  0.000  0.000  0.000  0.118
   14  0.000  0.000  0.000  0.001  0.000  0.000  0.000  0.000  0.000  0.001
   15  0.000  0.000  0.000  0.000  0.000  0.000  0.000  0.000  0.000  0.000
   16  0.000  0.118  0.280  0.170  0.000  0.000  0.000  0.000  0.000  0.569
   17  0.000  0.000  0.001  0.000  0.000  0.000  0.000  0.000  0.000  0.001