VaspCalc                                
           1
    20.000000    0.000000    0.000000
     0.000000   20.000000    0.000000
     0.000000    0.000000   20.000000
   H    O 
  12   6
Direct configuration=     1
   0.51568322  0.48423117  0.42426477
   0.58249050  0.51859334  0.44536113
   0.51030648  0.51481623  0.57655481
   0.50820197  0.44216098  0.55102519
   0.60732886  0.48689159  0.54283482
   0.67657777  0.46952515  0.50843797
   0.41689696  0.44174577  0.47943834
   0.44772548  0.37259916  0.45527827
   0.33481007  0.49683442  0.53871230
   0.39253709  0.53926366  0.50603488
   0.49623305  0.56798920  0.47684356
   0.46837095  0.63195920  0.51669403
   0.53932667  0.52737164  0.42192884
   0.53165925  0.47104088  0.58342033
   0.64137527  0.50294894  0.50975020
   0.45980651  0.41683209  0.47130327
   0.35967648  0.50252909  0.49733577
   0.46683393  0.58341133  0.51591139
Direct configuration=     2
   0.51552914  0.48427136  0.42378424
   0.58226630  0.51870432  0.44566401
   0.51079193  0.51449966  0.57677672
   0.50769753  0.44178714  0.55075582
   0.60717475  0.48681197  0.54320565
   0.67691824  0.46996464  0.50803573
   0.41769272  0.44179717  0.47959418
   0.44855057  0.37301722  0.45482824
   0.33521730  0.49651051  0.53903117
   0.39223189  0.53881402  0.50633255
   0.49677171  0.56779895  0.47667476
   0.46867424  0.63119322  0.51693680
   0.53929747  0.52720746  0.42179908
   0.53167912  0.47112093  0.58319329
   0.64138899  0.50292517  0.50969279
   0.45987716  0.41679865  0.47129696
   0.35953830  0.50258084  0.49720090
   0.46686475  0.58336587  0.51575184
Direct configuration=     3
   0.51537303  0.48430068  0.42330752
   0.58204460  0.51880903  0.44596582
   0.51124434  0.51424166  0.57698696
   0.50721913  0.44144915  0.55051839
   0.60704667  0.48673697  0.54355244
   0.67725961  0.47039610  0.50763685
   0.41844384  0.44186250  0.47975119
   0.44935590  0.37339068  0.45436221
   0.33562916  0.49618525  0.53933354
   0.39195146  0.53839287  0.50662973
   0.49729206  0.56761499  0.47652211
   0.46898041  0.63051418  0.51718164
   0.53926853  0.52704448  0.42166928
   0.53169957  0.47119503  0.58296499
   0.64140082  0.50290156  0.50963660
   0.45995168  0.41676700  0.47129149
   0.35939832  0.50263091  0.49706713
   0.46689645  0.58331458  0.51559114
Direct configuration=     4
   0.51521318  0.48430909  0.42283842
   0.58182703  0.51890113  0.44626516
   0.51163329  0.51409770  0.57717494
   0.50678944  0.44117809  0.55033876
   0.60696632  0.48667048  0.54385422
   0.67760278  0.47081355  0.50724463
   0.41910662  0.44195597  0.47991129
   0.45012394  0.37368041  0.45386498
   0.33604892  0.49585718  0.53960376
   0.39171997  0.53802723  0.50692551
   0.49777763  0.56744270  0.47639896
   0.46929315  0.63000415  0.51743160
   0.53924012  0.52688379  0.42153942
   0.53172123  0.47125776  0.58273444
   0.64140915  0.50287822  0.50958270
   0.46003373  0.41673860  0.47128765
   0.35925487  0.50267774  0.49693555
   0.46692975  0.58325195  0.51542821
Direct configuration=     5
   0.51504876  0.48428860  0.42238054
   0.58161442  0.51897460  0.44656008
   0.51193489  0.51411079  0.57733254
   0.50642583  0.44099791  0.55023486
   0.60695061  0.48661462  0.54409434
   0.67794714  0.47121297  0.50686225
   0.41964310  0.44208936  0.48007561
   0.45084090  0.37385949  0.45332511
   0.33647790  0.49552467  0.53982877
   0.39155753  0.53773925  0.50721834
   0.49821437  0.56728653  0.47631514
   0.46961636  0.62972398  0.51769009
   0.53921248  0.52672633  0.42140952
   0.53174463  0.47130490  0.58250101
   0.64141278  0.50285525  0.50953189
   0.46012638  0.41671433  0.47128604
   0.35910669  0.50272008  0.49680710
   0.46696519  0.58317387  0.51526217
Direct configuration=     6
   0.51488017  0.48423414  0.42193735
   0.58140670  0.51902377  0.44684798
   0.51213609  0.51430191  0.57745498
   0.50613945  0.44092444  0.55021624
   0.60701119  0.48656965  0.54426112
   0.67829017  0.47159250  0.50649281
   0.42002596  0.44226893  0.48024338
   0.45149756  0.37391864  0.45273760
   0.33691512  0.49518582  0.53999934
   0.39147728  0.53754321  0.50750519
   0.49859134  0.56714984  0.47627651
   0.46995295  0.62969858  0.51795948
   0.53918583  0.52657281  0.42127964
   0.53177003  0.47133416  0.58226438
   0.64141100  0.50283276  0.50948467
   0.46023173  0.41669429  0.47128696
   0.35895310  0.50275718  0.49668258
   0.46700315  0.58307853  0.51509247
Direct configuration=     7
   0.51470936  0.48414399  0.42151219
   0.58120286  0.51904353  0.44712561
   0.51223696  0.51466448  0.57754088
   0.50593486  0.44096496  0.55028409
   0.60715436  0.48653391  0.54434815
   0.67862750  0.47195236  0.50613930
   0.42024221  0.44249297  0.48041107
   0.45208921  0.37386825  0.45210557
   0.33735729  0.49483836  0.54011087
   0.39148333  0.53744358  0.50778076
   0.49890110  0.56703486  0.47628472
   0.47030370  0.62991019  0.51823968
   0.53916034  0.52642369  0.42114985
   0.53179725  0.47134550  0.58202460
   0.64140356  0.50281081  0.50944123
   0.46035071  0.41667791  0.47129036
   0.35879416  0.50278892  0.49656264
   0.46704392  0.58296690  0.51491898
Direct configuration=     8
   0.51453977  0.48401986  0.42110837
   0.58100117  0.51902941  0.44738925
   0.51224992  0.51516542  0.57759149
   0.50580974  0.44111796  0.55043152
   0.60738108  0.48650393  0.54435442
   0.67895323  0.47229450  0.50580454
   0.42029455  0.44275086  0.48057191
   0.45261482  0.37373606  0.45143998
   0.33779909  0.49447962  0.54016369
   0.39157019  0.53743465  0.50803725
   0.49913988  0.56694257  0.47633741
   0.47066680  0.63030327  0.51852729
   0.53913608  0.52627916  0.42102025
   0.53182574  0.47134112  0.58178205
   0.64139071  0.50278952  0.50940143
   0.46048301  0.41666409  0.47129588
   0.35863067  0.50281584  0.49644776
   0.46708773  0.58284240  0.51474208
Direct configuration=     9
   0.51437618  0.48386658  0.42072916
   0.58079940  0.51897770  0.44763483
   0.51219631  0.51575217  0.57760961
   0.50575469  0.44137312  0.55064378
   0.60768715  0.48647446  0.54428440
   0.67926047  0.47262203  0.50549113
   0.42020003  0.44302402  0.48071633
   0.45307579  0.37356159  0.45075792
   0.33823362  0.49410663  0.54016281
   0.39172384  0.53750193  0.50826467
   0.49930766  0.56687268  0.47642843
   0.47103801  0.63079840  0.51881587
   0.53911308  0.52613914  0.42089095
   0.53185480  0.47132497  0.58153755
   0.64137311  0.50276904  0.50936480
   0.46062726  0.41665153  0.47130292
   0.35846411  0.50283902  0.49633827
   0.46713470  0.58271003  0.51456259
Direct configuration=    10
   0.51422425  0.48369142  0.42037773
   0.58059514  0.51888552  0.44785819
   0.51210187  0.51636277  0.57759841
   0.50575333  0.44171151  0.55089872
   0.60806335  0.48643855  0.54414795
   0.67954224  0.47293849  0.50520136
   0.41998640  0.44328853  0.48083282
   0.45347477  0.37338910  0.45007986
   0.33865308  0.49371619  0.54011730
   0.39192404  0.53762474  0.50845169
   0.49940796  0.56682356  0.47654826
   0.47141156  0.63130876  0.51909696
   0.53909126  0.52600334  0.42076203
   0.53188387  0.47130214  0.58129238
   0.64135180  0.50274960  0.50933057
   0.46078134  0.41663899  0.47131077
   0.35829640  0.50285996  0.49623431
   0.46718481  0.58257535  0.51438166
Direct configuration=    11
   0.51408997  0.48350318  0.42005704
   0.58038620  0.51875089  0.44805530
   0.51199253  0.51693544  0.57756075
   0.50578266  0.44210638  0.55116758
   0.60849568  0.48638762  0.54396018
   0.67979235  0.47324723  0.50493704
   0.41968768  0.44351841  0.48090926
   0.45381482  0.37326111  0.44942663
   0.33904944  0.49330516  0.54003911
   0.39214728  0.53777935  0.50858679
   0.49944754  0.56679229  0.47668457
   0.47178112  0.63175362  0.51936137
   0.53907049  0.52587133  0.42063358
   0.53191278  0.47127820  0.58104827
   0.64132809  0.50273156  0.50929764
   0.46094272  0.41662546  0.47131875
   0.35812973  0.50288029  0.49613584
   0.46723791  0.58244362  0.51420073
Direct configuration=    12
   0.51397902  0.48331117  0.41976972
   0.58017096  0.51857275  0.44822262
   0.51189144  0.51741573  0.57749890
   0.50581440  0.44252479  0.55141662
   0.60896592  0.48631166  0.54374089
   0.68000625  0.47355078  0.50469936
   0.41933982  0.44368875  0.48093418
   0.45409893  0.37321345  0.44881689
   0.33941520  0.49287073  0.53994160
   0.39236947  0.53794182  0.50865941
   0.49943596  0.56677475  0.47682286
   0.47214060  0.63206683  0.51960043
   0.53905062  0.52574255  0.42050564
   0.53194184  0.47125860  0.58080730
   0.64130350  0.50271543  0.50926469
   0.46110875  0.41661036  0.47132626
   0.35796625  0.50290164  0.49604266
   0.46729362  0.58231926  0.51402132
Direct configuration=    13
   0.51389619  0.48312429  0.41951791
   0.57994871  0.51835096  0.44835730
   0.51181723  0.51776092  0.57741462
   0.50581748  0.44293063  0.55161012
   0.60945247  0.48619967  0.54351350
   0.68018180  0.47385038  0.50448883
   0.41897739  0.44377811  0.48089776
   0.45432984  0.37327212  0.44826518
   0.33974412  0.49241076  0.53983784
   0.39256824  0.53809023  0.50866092
   0.49938486  0.56676579  0.47694722
   0.47248475  0.63220074  0.51980685
   0.53903146  0.52561644  0.42037822
   0.53197179  0.47124827  0.58057175
   0.64127964  0.50270187  0.50923021
   0.46127690  0.41659346  0.47133287
   0.35780796  0.50292547  0.49595449
   0.46735138  0.58220563  0.51384495
Direct configuration=    14
   0.51384485  0.48295022  0.41930306
   0.57971994  0.51808633  0.44845742
   0.51178328  0.51794218  0.57730927
   0.50576217  0.44328917  0.55171474
   0.60993201  0.48604034  0.54330332
   0.68031970  0.47414571  0.50430514
   0.41863138  0.44377003  0.48079241
   0.45450995  0.37345165  0.44778073
   0.34003187  0.49192418  0.53973885
   0.39272446  0.53820619  0.50858531
   0.49930707  0.56675962  0.47704135
   0.47280962  0.63212751  0.51997542
   0.53901283  0.52549246  0.42025129
   0.53200365  0.47125112  0.58034373
   0.64125803  0.50269163  0.50919261
   0.46144492  0.41657501  0.47133835
   0.35765648  0.50295290  0.49587102
   0.46741050  0.58210488  0.51367305
Direct configuration=    15
   0.51382655  0.48279472  0.41912584
   0.57948650  0.51778050  0.44852221
   0.51179742  0.51794552  0.57718409
   0.50562519  0.44357249  0.55170482
   0.61038174  0.48582320  0.54313485
   0.68042372  0.47443480  0.50414720
   0.41832803  0.44365363  0.48061322
   0.45464132  0.37375445  0.44736673
   0.34027656  0.49141133  0.53965209
   0.39282319  0.53827570  0.50842956
   0.49921559  0.56675016  0.47708963
   0.47311278  0.63183921  0.52010343
   0.53899454  0.52537013  0.42012477
   0.53203834  0.47126971  0.58012493
   0.64123997  0.50268554  0.50915042
   0.46161090  0.41655563  0.47134272
   0.35751300  0.50298471  0.49579196
   0.46747019  0.58201795  0.51350683
Direct configuration=    16
   0.51384083  0.48266127  0.41898603
   0.57925171  0.51743594  0.44855206
   0.51186174  0.51777211  0.57704024
   0.50539487  0.44376450  0.55156737
   0.61078212  0.48554005  0.54302867
   0.68050056  0.47471416  0.50401309
   0.41808813  0.44342384  0.48035799
   0.45472562  0.37417099  0.44702007
   0.34047888  0.49087433  0.53958045
   0.39285425  0.53828960  0.50819381
   0.49912226  0.56673156  0.47707847
   0.47339374  0.63134779  0.52019110
   0.53897648  0.52524909  0.41999856
   0.53207648  0.47130488  0.57991621
   0.64122638  0.50268437  0.50910245
   0.46177335  0.41653631  0.47134625
   0.35737819  0.50302125  0.49571714
   0.46752961  0.58194453  0.51334714
Direct configuration=    17
   0.51388507  0.48255077  0.41888248
   0.57902026  0.51705582  0.44854854
   0.51197253  0.51743850  0.57687878
   0.50507426  0.44386380  0.55130484
   0.61111951  0.48518653  0.54299817
   0.68055931  0.47497917  0.50390018
   0.41792675  0.44308125  0.48002725
   0.45476423  0.37468049  0.44673131
   0.34064209  0.49031724  0.53952203
   0.39281246  0.53824381  0.50788135
   0.49903666  0.56669876  0.47699745
   0.47365419  0.63068517  0.52024192
   0.53895856  0.52512911  0.41987254
   0.53211812  0.47135555  0.57971748
   0.64121761  0.50268871  0.50904800
   0.46193113  0.41651840  0.47134948
   0.35725221  0.50306241  0.49564648
   0.46758796  0.58188302  0.51319445
Direct configuration=    18
   0.51395457  0.48246156  0.41881315
   0.57879801  0.51664400  0.44851423
   0.51211997  0.51697656  0.57670056
   0.50468118  0.44388318  0.55093461
   0.61138810  0.48476341  0.54304714
   0.68061062  0.47522466  0.50380534
   0.41785293  0.44263188  0.47962420
   0.45475832  0.37525242  0.44648516
   0.34077165  0.48974601  0.53947053
   0.39269789  0.53813934  0.50749848
   0.49896501  0.56664801  0.47684044
   0.47389839  0.62990290  0.52026286
   0.53894075  0.52501010  0.41974655
   0.53216281  0.47141881  0.57952771
   0.64121340  0.50269886  0.50898700
   0.46208358  0.41650347  0.47135314
   0.35713468  0.50310767  0.49558002
   0.46764451  0.58183050  0.51304868
Direct configuration=    19
   0.51404272  0.48238958  0.41877520
   0.57859159  0.51620498  0.44845245
   0.51228828  0.51643279  0.57650596
   0.50424498  0.44384603  0.55048538
   0.61159045  0.48427727  0.54316892
   0.68066541  0.47544564  0.50372516
   0.41786932  0.44208699  0.47915458
   0.45470913  0.37584905  0.44626159
   0.34087463  0.48916831  0.53941643
   0.39251588  0.53798247  0.50705432
   0.49890964  0.56657726  0.47660625
   0.47413342  0.62907050  0.52026444
   0.53892310  0.52489207  0.41962048
   0.53220974  0.47149012  0.57934519
   0.64121292  0.50271477  0.50892005
   0.46223044  0.41649321  0.47135817
   0.35702475  0.50315608  0.49551780
   0.46769863  0.58178282  0.51290922
Direct configuration=    20
   0.51414136  0.48232879  0.41876513
   0.57840788  0.51574376  0.44836688
   0.51245627  0.51586616  0.57629474
   0.50380138  0.44378113  0.54999183
   0.61173648  0.48374023  0.54334732
   0.68073354  0.47563813  0.50365622
   0.41797166  0.44146291  0.47862656
   0.45461836  0.37642917  0.44603777
   0.34095903  0.48859301  0.53934852
   0.39227716  0.53778457  0.50656049
   0.49886893  0.56648640  0.47629862
   0.47436901  0.62827086  0.52026013
   0.53890575  0.52477517  0.41949422
   0.53225808  0.47156385  0.57916786
   0.64121488  0.50273594  0.50884834
   0.46237187  0.41648917  0.47136551
   0.35692110  0.50320631  0.49545986
   0.46774981  0.58173485  0.51277494
Direct configuration=    21
   0.51424127  0.48227180  0.41877897
   0.57825344  0.51526590  0.44826116
   0.51259912  0.51534344  0.57606599
   0.50338723  0.44371762  0.54948938
   0.61184121  0.48316883  0.54355914
   0.68082245  0.47579999  0.50359537
   0.41814820  0.44078081  0.47805047
   0.45448886  0.37695306  0.44579102
   0.34103308  0.48802961  0.53925565
   0.39199751  0.53756188  0.50603060
   0.49883792  0.56637725  0.47592576
   0.47461664  0.62759117  0.52026497
   0.53888891  0.52465959  0.41936770
   0.53230717  0.47163384  0.57899364
   0.64121784  0.50276152  0.50877346
   0.46250847  0.41649246  0.47137598
   0.35682209  0.50325670  0.49540606
   0.46779765  0.58168103  0.51264436
Direct configuration=    22
   0.51433281  0.48221071  0.41881255
   0.57813391  0.51477743  0.44813847
   0.51269158  0.51493132  0.57581822
   0.50303619  0.44368124  0.54901018
   0.61192208  0.48258229  0.54377751
   0.68093610  0.47593145  0.50353992
   0.41837941  0.44006622  0.47743842
   0.45432545  0.37738804  0.44550234
   0.34110454  0.48748751  0.53912841
   0.39169712  0.53733472  0.50547967
   0.49880929  0.56625338  0.47549929
   0.47488775  0.62710875  0.52029302
   0.53887289  0.52454553  0.41924092
   0.53235659  0.47169415  0.57882072
   0.64122038  0.50279033  0.50869722
   0.46264122  0.41650350  0.47139003
   0.35672576  0.50330539  0.49535610
   0.46784196  0.58161633  0.51251581
Direct configuration=    23
   0.51440665  0.48213811  0.41886169
   0.57805341  0.51428483  0.44800115
   0.51271263  0.51468581  0.57554989
   0.50277589  0.44369204  0.54858061
   0.61199631  0.48200077  0.54397514
   0.68107440  0.47603543  0.50348775
   0.41863836  0.43934819  0.47680373
   0.45413576  0.37771340  0.44515998
   0.34118011  0.48697523  0.53896057
   0.39139924  0.53712614  0.50492329
   0.49877466  0.56611972  0.47503291
   0.47519115  0.62687450  0.52035416
   0.53885802  0.52443313  0.41911395
   0.53240602  0.47173989  0.57864761
   0.64122133  0.50282096  0.50862138
   0.46277138  0.41652166  0.47140757
   0.35663003  0.50335038  0.49530942
   0.46788279  0.58153726  0.51238779
Direct configuration=    24
   0.51445451  0.48204804  0.41892244
   0.57801421  0.51379495  0.44785041
   0.51265037  0.51464115  0.57525996
   0.50262628  0.44376334  0.54821994
   0.61207897  0.48144375  0.54412702
   0.68123325  0.47611736  0.50343734
   0.41889228  0.43865790  0.47616025
   0.45393070  0.37792327  0.44476185
   0.34126502  0.48649971  0.53875015
   0.39112805  0.53695980  0.50437662
   0.49872581  0.56598200  0.47454101
   0.47553047  0.62689991  0.52045120
   0.53884471  0.52432244  0.41898691
   0.53245507  0.47176798  0.57847328
   0.64121993  0.50285190  0.50854755
   0.46290037  0.41654529  0.47142787
   0.35653288  0.50338977  0.49526523
   0.46792055  0.58144273  0.51225922
Direct configuration=    25
   0.51446982  0.48193697  0.41899125
   0.57801640  0.51331491  0.44768631
   0.51250564  0.51480242  0.57494856
   0.50259893  0.44390138  0.54793984
   0.61218173  0.48092873  0.54421239
   0.68140523  0.47618470  0.50338765
   0.41910571  0.43802642  0.47552133
   0.45372437  0.37802673  0.44431610
   0.34136272  0.48606579  0.53850015
   0.39090577  0.53685710  0.50385344
   0.49865568  0.56584623  0.47403755
   0.47590281  0.62715399  0.52057882
   0.53883334  0.52421331  0.41886002
   0.53250303  0.47177764  0.57829708
   0.64121581  0.50288163  0.50847702
   0.46302959  0.41657174  0.47144953
   0.35643252  0.50342191  0.49522247
   0.46795599  0.58133432  0.51212955
Direct configuration=    26
   0.51444832  0.48180441  0.41906509
   0.57805794  0.51285198  0.44750772
   0.51229244  0.51514484  0.57461729
   0.50269668  0.44410531  0.54774410
   0.61231222  0.48047023  0.54421590
   0.68158068  0.47624618  0.50333804
   0.41924515  0.43748198  0.47489897
   0.45353322  0.37804491  0.44383960
   0.34147476  0.48567583  0.53821875
   0.39074938  0.53683403  0.50336522
   0.49855903  0.56571810  0.47353507
   0.47629924  0.62757172  0.52072464
   0.53882427  0.52410544  0.41873353
   0.53254891  0.47177043  0.57811877
   0.64120905  0.50290876  0.50841074
   0.46316015  0.41659781  0.47147068
   0.35632763  0.50344567  0.49517994
   0.46799016  0.58121574  0.51199877
Direct configuration=    27
   0.51438821  0.48165312  0.41914151
   0.57813486  0.51241333  0.44731255
   0.51203519  0.51562014  0.57426899
   0.50291370  0.44436719  0.54762855
   0.61247388  0.48007910  0.54412823
   0.68174911  0.47631082  0.50328807
   0.41928482  0.43704719  0.47430319
   0.45337463  0.37800642  0.44335490
   0.34160088  0.48532959  0.53791906
   0.39066769  0.53689837  0.50292048
   0.49843272  0.56560257  0.47304426
   0.47670685  0.62806976  0.52087199
   0.53881780  0.52399828  0.41860772
   0.53259158  0.47174985  0.57793854
   0.64120004  0.50293209  0.50834924
   0.46329260  0.41662021  0.47148921
   0.35621757  0.50346057  0.49513628
   0.46802421  0.58109187  0.51186730
Direct configuration=    28
   0.51429025  0.48148897  0.41921864
   0.57824160  0.51200583  0.44709808
   0.51176393  0.51616696  0.57390735
   0.50323553  0.44467220  0.54758099
   0.61266599  0.47976207  0.54394637
   0.68190058  0.47638707  0.50323735
   0.41921198  0.43673647  0.47374166
   0.45326535  0.37794233  0.44288662
   0.34173924  0.48502448  0.53761824
   0.39065975  0.53704806  0.50252467
   0.49827573  0.56550349  0.47257362
   0.47711122  0.62856252  0.52100316
   0.53881411  0.52389113  0.41848290
   0.53263004  0.47172070  0.57775700
   0.64118946  0.50295071  0.50829269
   0.46342671  0.41663601  0.47150301
   0.35610244  0.50346690  0.49509005
   0.46805929  0.58096780  0.51173574
Direct configuration=    29
   0.51415739  0.48132029  0.41929521
   0.57837155  0.51163575  0.44686129
   0.51150936  0.51672149  0.57353624
   0.50363953  0.44499881  0.54758124
   0.61288378  0.47952148  0.54367365
   0.68202697  0.47648196  0.50318544
   0.41903001  0.43655496  0.47321983
   0.45322008  0.37788188  0.44245832
   0.34188693  0.48475602  0.53733593
   0.39071494  0.53727133  0.50218047
   0.49808891  0.56542343  0.47212954
   0.47749862  0.62897402  0.52110194
   0.53881333  0.52378317  0.41835937
   0.53266376  0.47168834  0.57757526
   0.64117813  0.50296406  0.50824086
   0.46356136  0.41664301  0.47151016
   0.35598309  0.50346566  0.49503987
   0.46809637  0.58084807  0.51160473
Direct configuration=    30
   0.51399437  0.48115692  0.41937045
   0.57851763  0.51130862  0.44659929
   0.51129911  0.51722549  0.57315934
   0.50409599  0.44531969  0.54760189
   0.61311857  0.47935515  0.54331968
   0.68212293  0.47660050  0.50313172
   0.41875837  0.43649895  0.47274147
   0.45325045  0.37784932  0.44208992
   0.34204062  0.48451872  0.53709219
   0.39081479  0.53754851  0.50188840
   0.49787472  0.56536364  0.47171640
   0.47785732  0.62924444  0.52115521
   0.53881543  0.52367351  0.41823737
   0.53269279  0.47165818  0.57739486
   0.64116700  0.50297201  0.50819316
   0.46369458  0.41663989  0.47150910
   0.35586089  0.50345842  0.49498442
   0.46813616  0.58073630  0.51147488
Direct configuration=    31
   0.51380715  0.48100923  0.41944404
   0.57867290  0.51102891  0.44630968
   0.51115546  0.51763107  0.57277989
   0.50457018  0.44560337  0.54761002
   0.61335797  0.47925634  0.54289999
   0.68218661  0.47674525  0.50307539
   0.41842917  0.43655763  0.47230931
   0.45336443  0.37786203  0.44179608
   0.34219737  0.48430713  0.53690506
   0.39093603  0.53785497  0.50164757
   0.49763684  0.56532410  0.47133687
   0.47817840  0.62933292  0.52115377
   0.53882034  0.52356130  0.41811710
   0.53271783  0.47163522  0.57721771
   0.64115705  0.50297482  0.50814863
   0.46382382  0.41662627  0.47149867
   0.35573755  0.50344702  0.49492262
   0.46817913  0.58063498  0.51134663
Direct configuration=    32
   0.51360228  0.48088696  0.41951603
   0.57883109  0.51079994  0.44599095
   0.51109449  0.51790281  0.57240064
   0.50502602  0.44581727  0.54757064
   0.61358616  0.47921400  0.54243545
   0.68221991  0.47691616  0.50301544
   0.41808190  0.43671561  0.47192547
   0.45356614  0.37792939  0.44158517
   0.34235531  0.48411708  0.53678802
   0.39105381  0.53816438  0.50145623
   0.49737978  0.56530373  0.47099216
   0.47845610  0.62921807  0.52109262
   0.53882787  0.52344579  0.41799864
   0.53274003  0.47162375  0.57704587
   0.64114928  0.50297321  0.50810603
   0.46394632  0.41660257  0.47147817
   0.35561486  0.50343334  0.49485370
   0.46822544  0.58054545  0.51122025
Direct configuration=    33
   0.51338638  0.48079840  0.41958675
   0.57898715  0.51062367  0.44564267
   0.51112579  0.51801844  0.57202385
   0.50543097  0.44593203  0.54745157
   0.61378466  0.47921342  0.54195109
   0.68222839  0.47711065  0.50295071
   0.41775786  0.43695523  0.47159171
   0.45385581  0.37805240  0.44145884
   0.34251420  0.48394660  0.53674797
   0.39114461  0.53845159  0.50131222
   0.49710854  0.56530055  0.47068232
   0.47868819  0.62889791  0.52097111
   0.53883776  0.52332636  0.41788200
   0.53276071  0.47162702  0.57688123
   0.64114463  0.50296828  0.50806386
   0.46405940  0.41656990  0.47144736
   0.35549444  0.50341901  0.49477735
   0.46827499  0.58046791  0.51109580
Direct configuration=    34
   0.51316571  0.48074959  0.41965676
   0.57913762  0.51050067  0.44526578
   0.51125258  0.51796900  0.57165123
   0.50576165  0.44592656  0.54722943
   0.61393344  0.47923737  0.54147433
   0.68222084  0.47732381  0.50287997
   0.41749547  0.43725844  0.47130937
   0.45422998  0.37822358  0.44141186
   0.34267562  0.48379661  0.53678407
   0.39118834  0.53869488  0.50121320
   0.49682836  0.56531187  0.47040647
   0.47887621  0.62838970  0.52079300
   0.53884971  0.52320263  0.41776703
   0.53278102  0.47164689  0.57672521
   0.64114396  0.50296142  0.50802047
   0.46416078  0.41652995  0.47140649
   0.35537760  0.50340530  0.49469373
   0.46832738  0.58040143  0.51097313
Direct configuration=    35
   0.51294574  0.48074386  0.41972676
   0.57928099  0.51043011  0.44486269
   0.51147170  0.51775896  0.57128371
   0.50600836  0.44579246  0.54689473
   0.61401278  0.47926784  0.54103233
   0.68220843  0.47754893  0.50280210
   0.41732711  0.43760804  0.47107921
   0.45468189  0.37842746  0.44143231
   0.34284276  0.48367085  0.53688782
   0.39116961  0.53887734  0.50115673
   0.49654446  0.56533449  0.47016300
   0.47902577  0.62772976  0.52056650
   0.53886335  0.52307445  0.41765349
   0.53280168  0.47168358  0.57657837
   0.64114794  0.50295418  0.50797426
   0.46424874  0.41648485  0.47135631
   0.35526528  0.50339296  0.49460349
   0.46838195  0.58034395  0.51085184
Direct configuration=    36
   0.51273092  0.48078155  0.41979754
   0.57941775  0.51040973  0.44443724
   0.51177362  0.51740649  0.57092118
   0.50617685  0.44553615  0.54645435
   0.61400567  0.47928830  0.54064892
   0.68220347  0.47777815  0.50271626
   0.41727740  0.43798833  0.47090121
   0.45520193  0.37864144  0.44150233
   0.34301981  0.48357536  0.53704424
   0.39107841  0.53898771  0.50114027
   0.49626196  0.56536487  0.46994962
   0.47914678  0.62697306  0.52030415
   0.53887829  0.52294194  0.41754100
   0.53282286  0.47173548  0.57644034
   0.64115700  0.50294811  0.50792378
   0.46432222  0.41643708  0.47129799
   0.35515800  0.50338225  0.49450769
   0.46843773  0.58029227  0.51073129
Direct configuration=    37
   0.51252450  0.48085991  0.41986998
   0.57955046  0.51043601  0.44399470
   0.51214229  0.51694381  0.57056199
   0.50628650  0.44517776  0.54593023
   0.61390037  0.47928609  0.54034138
   0.68221808  0.47800326  0.50262210
   0.41736245  0.43838541  0.47077433
   0.45577838  0.37883766  0.44159940
   0.34321122  0.48351740  0.53723397
   0.39091027  0.53902069  0.50116115
   0.49598581  0.56539925  0.46976342
   0.47925329  0.62619101  0.52002236
   0.53889412  0.52280546  0.41742908
   0.53284428  0.47179923  0.57630987
   0.64117123  0.50294452  0.50786797
   0.46438078  0.41638932  0.47123307
   0.35505594  0.50337300  0.49440765
   0.46849349  0.58024224  0.51061066
Direct configuration=    38
   0.51232848  0.48097321  0.41994506
   0.57968347  0.51050429  0.44354143
   0.51255536  0.51641689  0.57020250
   0.50636564  0.44474733  0.54535496
   0.61369261  0.47925444  0.54011792
   0.68226254  0.47821653  0.50251998
   0.41758964  0.43878736  0.47069640
   0.45639833  0.37898582  0.44169863
   0.34342084  0.48350426  0.53743578
   0.39066623  0.53897706  0.50121654
   0.49572086  0.56543383  0.46960077
   0.47936258  0.62546618  0.51974012
   0.53891044  0.52266563  0.41731716
   0.53286554  0.47186996  0.57618521
   0.64119035  0.50294434  0.50780631
   0.46442462  0.41634425  0.47116334
   0.35495891  0.50336466  0.49430485
   0.46854783  0.58018902  0.51048903
Direct configuration=    39
   0.51214359  0.48111304  0.42002384
   0.57982246  0.51060901  0.44308457
   0.51298502  0.51588378  0.56983683
   0.50644589  0.44427971  0.54476579
   0.61338677  0.47919352  0.53997654
   0.68234388  0.47841159  0.50241114
   0.41795772  0.43918438  0.47066396
   0.45704887  0.37905724  0.44177591
   0.34365122  0.48354198  0.53762908
   0.39035267  0.53886357  0.50130344
   0.49547196  0.56546490  0.46945732
   0.47949316  0.62488212  0.51947657
   0.53892685  0.52252328  0.41720459
   0.53288638  0.47194176  0.57606438
   0.64121368  0.50294796  0.50773886
   0.46445446  0.41630427  0.47109063
   0.35486648  0.50335640  0.49420071
   0.46859923  0.58012773  0.51036550
Direct configuration=    40
   0.51196949  0.48126877  0.42010749
   0.57997374  0.51074401  0.44263156
   0.51340013  0.51541014  0.56945685
   0.50655720  0.44380981  0.54419921
   0.61299550  0.47911015  0.53990578
   0.68246472  0.47858410  0.50229776
   0.41845689  0.43956900  0.47067222
   0.45771803  0.37902957  0.44181162
   0.34390304  0.48363435  0.53779605
   0.38998099  0.53869276  0.50141873
   0.49524406  0.56548907  0.46932785
   0.47966125  0.62450861  0.51924779
   0.53894304  0.52237939  0.41709070
   0.53290688  0.47200823  0.57594561
   0.64124031  0.50295523  0.50766619
   0.46447154  0.41627122  0.47101657
   0.35477796  0.50334720  0.49409652
   0.46864637  0.58005436  0.51023948
Direct configuration=    41
   0.51180500  0.48142820  0.42019736
   0.58014340  0.51090289  0.44218952
   0.51376989  0.51506127  0.56905300
   0.50672444  0.44336905  0.54368701
   0.61253814  0.47901632  0.53988695
   0.68262276  0.47873212  0.50218294
   0.41906888  0.43993643  0.47071513
   0.45839558  0.37889136  0.44179413
   0.34417477  0.48378220  0.53792334
   0.38956711  0.53848239  0.50155915
   0.49504232  0.56550340  0.46920634
   0.47987682  0.62438588  0.51906340
   0.53895877  0.52223505  0.41697482
   0.53292741  0.47206321  0.57582746
   0.64126914  0.50296555  0.50758931
   0.46447750  0.41624604  0.47094236
   0.35469249  0.50333591  0.49399328
   0.46868831  0.57996673  0.51011082
Direct configuration=    42
   0.51164857  0.48157846  0.42029496
   0.58033636  0.51107931  0.44176475
   0.51406879  0.51489099  0.56861580
   0.50696561  0.44298313  0.54325396
   0.61203807  0.47892704  0.53989729
   0.68281087  0.47885613  0.50207058
   0.41976724  0.44028503  0.47078556
   0.45907310  0.37864501  0.44172200
   0.34446265  0.48398290  0.53800320
   0.38913060  0.53825458  0.50172133
   0.49487201  0.56550560  0.46908619
   0.48014063  0.62451415  0.51892430
   0.53897392  0.52209140  0.41685636
   0.53294847  0.47210166  0.57570894
   0.64129913  0.50297796  0.50750940