18
# CELL(abcABC):   37.79452    37.79452    37.79452    90.00000    90.00000    90.00000  Step:           0  Bead:       0 positions{angstrom}  cell{atomic_unit}
       H  1.03392e+01  9.64635e+00  8.49008e+00
       H  1.16501e+01  1.03499e+01  8.85357e+00
       H  1.01918e+01  1.02897e+01  1.15198e+01
       H  1.01764e+01  8.85076e+00  1.10388e+01
       H  1.22134e+01  9.77340e+00  1.08594e+01
       H  1.36405e+01  9.51980e+00  1.03080e+01
       H  8.36643e+00  8.76149e+00  9.56198e+00
       H  8.96367e+00  7.41550e+00  9.06625e+00
       H  6.40000e+00  9.95009e+00  1.07541e+01
       H  7.81957e+00  1.07631e+01  1.01263e+01
       H  9.90852e+00  1.13924e+01  9.55628e+00
       H  9.40590e+00  1.26631e+01  1.03164e+01
       O  1.07862e+01  1.05053e+01  8.42595e+00
       O  1.06297e+01  9.43712e+00  1.16657e+01
       O  1.28737e+01  1.00891e+01  1.02074e+01
       O  9.20929e+00  8.28133e+00  9.40365e+00
       O  7.20149e+00  1.00225e+01  9.95757e+00
       O  9.34087e+00  1.17040e+01  1.03114e+01
18
# CELL(abcABC):   37.79452    37.79452    37.79452    90.00000    90.00000    90.00000  Step:           1  Bead:       0 positions{angstrom}  cell{atomic_unit}
       H  1.03366e+01  9.64250e+00  8.49023e+00
       H  1.16546e+01  1.03496e+01  8.85575e+00
       H  1.01900e+01  1.02940e+01  1.15195e+01
       H  1.01745e+01  8.84757e+00  1.10360e+01
       H  1.22094e+01  9.77217e+00  1.08627e+01
       H  1.36440e+01  9.51761e+00  1.03079e+01
       H  8.36215e+00  8.76433e+00  9.56336e+00
       H  8.96323e+00  7.41183e+00  9.06486e+00
       H  6.42641e+00  9.95473e+00  1.07311e+01
       H  7.82066e+00  1.07681e+01  1.01308e+01
       H  9.91145e+00  1.13901e+01  9.55229e+00
       H  9.40571e+00  1.26670e+01  1.03169e+01
       O  1.07845e+01  1.05095e+01  8.42355e+00
       O  1.06336e+01  9.43599e+00  1.16690e+01
       O  1.28741e+01  1.00924e+01  1.02041e+01
       O  9.21375e+00  8.28245e+00  9.40406e+00
       O  7.17429e+00  1.00132e+01  9.97588e+00
       O  9.33793e+00  1.17019e+01  1.03147e+01
18
# CELL(abcABC):   37.79452    37.79452    37.79452    90.00000    90.00000    90.00000  Step:           2  Bead:       0 positions{angstrom}  cell{atomic_unit}
       H  1.03318e+01  9.63892e+00  8.48999e+00
       H  1.16615e+01  1.03509e+01  8.85913e+00
       H  1.01894e+01  1.02992e+01  1.15205e+01
       H  1.01737e+01  8.84263e+00  1.10334e+01
       H  1.22013e+01  9.77181e+00  1.08670e+01
       H  1.36484e+01  9.51589e+00  1.03057e+01
       H  8.35591e+00  8.76885e+00  9.56728e+00
       H  8.96463e+00  7.40786e+00  9.06360e+00
       H  6.49935e+00  9.96955e+00  1.06711e+01
       H  7.79736e+00  1.07549e+01  1.01413e+01
       H  9.91717e+00  1.13830e+01  9.54405e+00
       H  9.40333e+00  1.26708e+01  1.03191e+01
       O  1.07829e+01  1.05127e+01  8.42146e+00
       O  1.06365e+01  9.43557e+00  1.16706e+01
       O  1.28753e+01  1.00941e+01  1.02015e+01
       O  9.21569e+00  8.28429e+00  9.40381e+00
       O  7.13027e+00  1.00137e+01  1.00241e+01
       O  9.33215e+00  1.17002e+01  1.03189e+01
18
# CELL(abcABC):   37.79452    37.79452    37.79452    90.00000    90.00000    90.00000  Step:           3  Bead:       0 positions{angstrom}  cell{atomic_unit}
       H  1.03329e+01  9.63971e+00  8.49006e+00
       H  1.16598e+01  1.03507e+01  8.85833e+00
       H  1.01894e+01  1.02983e+01  1.15202e+01
       H  1.01739e+01  8.84369e+00  1.10339e+01
       H  1.22033e+01  9.77198e+00  1.08658e+01
       H  1.36477e+01  9.51607e+00  1.03062e+01
       H  8.35742e+00  8.76758e+00  9.56641e+00
       H  8.96428e+00  7.40871e+00  9.06387e+00
       H  6.46500e+00  9.96552e+00  1.07037e+01
       H  7.80380e+00  1.07602e+01  1.01401e+01
       H  9.91533e+00  1.13848e+01  9.54660e+00
       H  9.40381e+00  1.26700e+01  1.03187e+01
       O  1.07835e+01  1.05120e+01  8.42210e+00
       O  1.06361e+01  9.43550e+00  1.16704e+01
       O  1.28745e+01  1.00938e+01  1.02023e+01
       O  9.21487e+00  8.28432e+00  9.40398e+00
       O  7.15731e+00  1.00120e+01  9.99291e+00
       O  9.33403e+00  1.17000e+01  1.03171e+01
18
# CELL(abcABC):   37.79452    37.79452    37.79452    90.00000    90.00000    90.00000  Step:           4  Bead:       0 positions{angstrom}  cell{atomic_unit}
       H  1.03320e+01  9.63960e+00  8.48997e+00
       H  1.16607e+01  1.03512e+01  8.85882e+00
       H  1.01897e+01  1.02990e+01  1.15206e+01
       H  1.01741e+01  8.84289e+00  1.10338e+01
       H  1.22018e+01  9.77225e+00  1.08662e+01
       H  1.36482e+01  9.51599e+00  1.03054e+01
       H  8.35644e+00  8.76826e+00  9.56739e+00
       H  8.96489e+00  7.40848e+00  9.06386e+00
       H  6.47509e+00  9.96900e+00  1.06976e+01
       H  7.79881e+00  1.07586e+01  1.01436e+01
       H  9.91590e+00  1.13833e+01  9.54559e+00
       H  9.40306e+00  1.26700e+01  1.03194e+01
       O  1.07836e+01  1.05119e+01  8.42221e+00
       O  1.06362e+01  9.43559e+00  1.16701e+01
       O  1.28744e+01  1.00935e+01  1.02024e+01
       O  9.21418e+00  8.28472e+00  9.40380e+00
       O  7.15418e+00  1.00107e+01  9.99504e+00
       O  9.33353e+00  1.16998e+01  1.03168e+01
18
# CELL(abcABC):   37.79452    37.79452    37.79452    90.00000    90.00000    90.00000  Step:           5  Bead:       0 positions{angstrom}  cell{atomic_unit}
       H  1.03302e+01  9.63982e+00  8.48981e+00
       H  1.16620e+01  1.03525e+01  8.85975e+00
       H  1.01903e+01  1.03003e+01  1.15213e+01
       H  1.01748e+01  8.84143e+00  1.10336e+01
       H  1.21990e+01  9.77298e+00  1.08665e+01
       H  1.36492e+01  9.51596e+00  1.03038e+01
       H  8.35448e+00  8.76941e+00  9.56958e+00
       H  8.96629e+00  7.40832e+00  9.06400e+00
       H  6.48983e+00  9.97603e+00  1.06921e+01
       H  7.78959e+00  1.07571e+01  1.01516e+01
       H  9.91642e+00  1.13802e+01  9.54415e+00
       H  9.40135e+00  1.26696e+01  1.03209e+01
       O  1.07843e+01  1.05113e+01  8.42283e+00
       O  1.06363e+01  9.43591e+00  1.16692e+01
       O  1.28740e+01  1.00925e+01  1.02033e+01
       O  9.21211e+00  8.28582e+00  9.40343e+00
       O  7.15359e+00  1.00066e+01  9.99136e+00
       O  9.33307e+00  1.16991e+01  1.03153e+01
18
# CELL(abcABC):   37.79452    37.79452    37.79452    90.00000    90.00000    90.00000  Step:           6  Bead:       0 positions{angstrom}  cell{atomic_unit}
       H  1.03284e+01  9.64037e+00  8.48977e+00
       H  1.16634e+01  1.03539e+01  8.86096e+00
       H  1.01911e+01  1.03016e+01  1.15220e+01
       H  1.01757e+01  8.83998e+00  1.10336e+01
       H  1.21957e+01  9.77375e+00  1.08667e+01
       H  1.36498e+01  9.51598e+00  1.03018e+01
       H  8.35177e+00  8.77057e+00  9.57246e+00
       H  8.96801e+00  7.40853e+00  9.06433e+00
       H  6.50235e+00  9.98343e+00  1.06908e+01
       H  7.78065e+00  1.07569e+01  1.01606e+01
       H  9.91659e+00  1.13765e+01  9.54268e+00
       H  9.39927e+00  1.26684e+01  1.03227e+01
       O  1.07852e+01  1.05106e+01  8.42378e+00
       O  1.06365e+01  9.43642e+00  1.16681e+01
       O  1.28732e+01  1.00912e+01  1.02044e+01
       O  9.20955e+00  8.28734e+00  9.40303e+00
       O  7.15696e+00  1.00015e+01  9.98161e+00
       O  9.33259e+00  1.16980e+01  1.03132e+01
18
# CELL(abcABC):   37.79452    37.79452    37.79452    90.00000    90.00000    90.00000  Step:           7  Bead:       0 positions{angstrom}  cell{atomic_unit}
       H  1.03267e+01  9.64183e+00  8.49073e+00
       H  1.16644e+01  1.03548e+01  8.86346e+00
       H  1.01923e+01  1.03025e+01  1.15220e+01
       H  1.01774e+01  8.83961e+00  1.10334e+01
       H  1.21921e+01  9.77367e+00  1.08666e+01
       H  1.36486e+01  9.51553e+00  1.02991e+01
       H  8.34711e+00  8.77083e+00  9.57737e+00
       H  8.97021e+00  7.40994e+00  9.06535e+00
       H  6.51365e+00  9.98623e+00  1.06920e+01
       H  7.77756e+00  1.07579e+01  1.01650e+01
       H  9.91533e+00  1.13718e+01  9.54067e+00
       H  9.39668e+00  1.26650e+01  1.03248e+01
       O  1.07865e+01  1.05105e+01  8.42559e+00
       O  1.06377e+01  9.43712e+00  1.16668e+01
       O  1.28703e+01  1.00903e+01  1.02054e+01
       O  9.20602e+00  8.29140e+00  9.40328e+00
       O  7.16342e+00  1.00021e+01  9.97026e+00
       O  9.33084e+00  1.16938e+01  1.03107e+01
18
# CELL(abcABC):   37.79452    37.79452    37.79452    90.00000    90.00000    90.00000  Step:           8  Bead:       0 positions{angstrom}  cell{atomic_unit}
       H  1.03259e+01  9.64316e+00  8.49170e+00
       H  1.16648e+01  1.03550e+01  8.86553e+00
       H  1.01932e+01  1.03028e+01  1.15216e+01
       H  1.01786e+01  8.83972e+00  1.10331e+01
       H  1.21895e+01  9.77306e+00  1.08668e+01
       H  1.36462e+01  9.51568e+00  1.02972e+01
       H  8.34335e+00  8.77101e+00  9.58092e+00
       H  8.97192e+00  7.41237e+00  9.06663e+00
       H  6.52001e+00  9.98568e+00  1.06929e+01
       H  7.77959e+00  1.07605e+01  1.01658e+01
       H  9.91417e+00  1.13687e+01  9.53918e+00
       H  9.39491e+00  1.26607e+01  1.03261e+01
       O  1.07872e+01  1.05107e+01  8.42680e+00
       O  1.06389e+01  9.43779e+00  1.16662e+01
       O  1.28691e+01  1.00896e+01  1.02056e+01
       O  9.20375e+00  8.29331e+00  9.40334e+00
       O  7.16640e+00  1.00034e+01  9.96376e+00
       O  9.32937e+00  1.16917e+01  1.03094e+01
18
# CELL(abcABC):   37.79452    37.79452    37.79452    90.00000    90.00000    90.00000  Step:           9  Bead:       0 positions{angstrom}  cell{atomic_unit}
       H  1.03250e+01  9.64491e+00  8.49329e+00
       H  1.16651e+01  1.03550e+01  8.86865e+00
       H  1.01944e+01  1.03031e+01  1.15207e+01
       H  1.01802e+01  8.84025e+00  1.10326e+01
       H  1.21864e+01  9.77202e+00  1.08668e+01
       H  1.36433e+01  9.51500e+00  1.02947e+01
       H  8.33834e+00  8.77097e+00  9.58577e+00
       H  8.97387e+00  7.41485e+00  9.06810e+00
       H  6.52833e+00  9.98295e+00  1.06934e+01
       H  7.78432e+00  1.07638e+01  1.01646e+01
       H  9.91225e+00  1.13647e+01  9.53720e+00
       H  9.39266e+00  1.26558e+01  1.03277e+01
       O  1.07881e+01  1.05115e+01  8.42856e+00
       O  1.06407e+01  9.43847e+00  1.16655e+01
       O  1.28658e+01  1.00895e+01  1.02059e+01
       O  9.20071e+00  8.29770e+00  9.40438e+00
       O  7.17024e+00  1.00079e+01  9.95713e+00
       O  9.32704e+00  1.16866e+01  1.03077e+01
18
# CELL(abcABC):   37.79452    37.79452    37.79452    90.00000    90.00000    90.00000  Step:          10  Bead:       0 positions{angstrom}  cell{atomic_unit}
       H  1.03229e+01  9.64949e+00  8.49769e+00
       H  1.16655e+01  1.03547e+01  8.87713e+00
       H  1.01975e+01  1.03038e+01  1.15181e+01
       H  1.01846e+01  8.84200e+00  1.10311e+01
       H  1.21784e+01  9.76876e+00  1.08669e+01
       H  1.36340e+01  9.51361e+00  1.02882e+01
       H  8.32522e+00  8.77168e+00  9.59770e+00
       H  8.97889e+00  7.42272e+00  9.07251e+00
       H  6.54969e+00  9.97359e+00  1.06927e+01
       H  7.79925e+00  1.07718e+01  1.01582e+01
       H  9.90755e+00  1.13542e+01  9.53165e+00
       H  9.38689e+00  1.26418e+01  1.03316e+01
       O  1.07902e+01  1.05139e+01  8.43290e+00
       O  1.06455e+01  9.43996e+00  1.16639e+01
       O  1.28582e+01  1.00892e+01  1.02059e+01
       O  9.19338e+00  8.30780e+00  9.40776e+00
       O  7.17861e+00  1.00220e+01  9.94444e+00
       O  9.32062e+00  1.16739e+01  1.03044e+01
18
# CELL(abcABC):   37.79452    37.79452    37.79452    90.00000    90.00000    90.00000  Step:          11  Bead:       0 positions{angstrom}  cell{atomic_unit}
       H  1.03227e+01  9.65007e+00  8.49818e+00
       H  1.16654e+01  1.03547e+01  8.87820e+00
       H  1.01980e+01  1.03038e+01  1.15177e+01
       H  1.01850e+01  8.84211e+00  1.10308e+01
       H  1.21775e+01  9.76845e+00  1.08668e+01
       H  1.36332e+01  9.51308e+00  1.02873e+01
       H  8.32413e+00  8.77206e+00  9.59864e+00
       H  8.97930e+00  7.42337e+00  9.07294e+00
       H  6.55246e+00  9.97289e+00  1.06924e+01
       H  7.80137e+00  1.07732e+01  1.01576e+01
       H  9.90705e+00  1.13531e+01  9.53117e+00
       H  9.38619e+00  1.26404e+01  1.03321e+01
       O  1.07903e+01  1.05142e+01  8.43338e+00
       O  1.06459e+01  9.44016e+00  1.16639e+01
       O  1.28568e+01  1.00894e+01  1.02059e+01
       O  9.19246e+00  8.30924e+00  9.40872e+00
       O  7.17882e+00  1.00225e+01  9.94300e+00
       O  9.32020e+00  1.16722e+01  1.03039e+01
18
# CELL(abcABC):   37.79452    37.79452    37.79452    90.00000    90.00000    90.00000  Step:          12  Bead:       0 positions{angstrom}  cell{atomic_unit}
       H  1.03216e+01  9.65256e+00  8.50077e+00
       H  1.16648e+01  1.03544e+01  8.88344e+00
       H  1.01999e+01  1.03041e+01  1.15158e+01
       H  1.01873e+01  8.84321e+00  1.10295e+01
       H  1.21736e+01  9.76641e+00  1.08666e+01
       H  1.36277e+01  9.51132e+00  1.02835e+01
       H  8.31820e+00  8.77410e+00  9.60317e+00
       H  8.98129e+00  7.42772e+00  9.07550e+00
       H  6.56444e+00  9.96700e+00  1.06907e+01
       H  7.81241e+00  1.07774e+01  1.01511e+01
       H  9.90474e+00  1.13477e+01  9.52839e+00
       H  9.38304e+00  1.26331e+01  1.03338e+01
       O  1.07908e+01  1.05160e+01  8.43560e+00
       O  1.06481e+01  9.44052e+00  1.16636e+01
       O  1.28515e+01  1.00901e+01  1.02055e+01
       O  9.18891e+00  8.31503e+00  9.41320e+00
       O  7.18100e+00  1.00302e+01  9.93957e+00
       O  9.31745e+00  1.16641e+01  1.03028e+01
18
# CELL(abcABC):   37.79452    37.79452    37.79452    90.00000    90.00000    90.00000  Step:          13  Bead:       0 positions{angstrom}  cell{atomic_unit}
       H  1.03212e+01  9.65331e+00  8.50159e+00
       H  1.16639e+01  1.03544e+01  8.88549e+00
       H  1.02008e+01  1.03041e+01  1.15150e+01
       H  1.01878e+01  8.84348e+00  1.10288e+01
       H  1.21724e+01  9.76574e+00  1.08666e+01
       H  1.36253e+01  9.51034e+00  1.02818e+01
       H  8.31721e+00  8.77646e+00  9.60290e+00
       H  8.98132e+00  7.42950e+00  9.07658e+00
       H  6.56889e+00  9.96542e+00  1.06901e+01
       H  7.81607e+00  1.07772e+01  1.01475e+01
       H  9.90468e+00  1.13461e+01  9.52750e+00
       H  9.38190e+00  1.26307e+01  1.03341e+01
       O  1.07905e+01  1.05168e+01  8.43615e+00
       O  1.06483e+01  9.44028e+00  1.16639e+01
       O  1.28498e+01  1.00904e+01  1.02052e+01
       O  9.18853e+00  8.31621e+00  9.41642e+00
       O  7.18096e+00  1.00328e+01  9.93978e+00
       O  9.31726e+00  1.16618e+01  1.03032e+01
18
# CELL(abcABC):   37.79452    37.79452    37.79452    90.00000    90.00000    90.00000  Step:          14  Bead:       0 positions{angstrom}  cell{atomic_unit}
       H  1.03206e+01  9.65397e+00  8.50239e+00
       H  1.16627e+01  1.03546e+01  8.88776e+00
       H  1.02018e+01  1.03042e+01  1.15142e+01
       H  1.01882e+01  8.84371e+00  1.10280e+01
       H  1.21710e+01  9.76511e+00  1.08666e+01
       H  1.36225e+01  9.50918e+00  1.02797e+01
       H  8.31682e+00  8.77986e+00  9.60170e+00
       H  8.98099e+00  7.43156e+00  9.07788e+00
       H  6.57358e+00  9.96426e+00  1.06905e+01
       H  7.81960e+00  1.07763e+01  1.01435e+01
       H  9.90494e+00  1.13446e+01  9.52679e+00
       H  9.38061e+00  1.26285e+01  1.03342e+01
       O  1.07900e+01  1.05176e+01  8.43672e+00
       O  1.06482e+01  9.43969e+00  1.16643e+01
       O  1.28481e+01  1.00906e+01  1.02048e+01
       O  9.18843e+00  8.31713e+00  9.42067e+00
       O  7.18111e+00  1.00350e+01  9.93900e+00
       O  9.31763e+00  1.16590e+01  1.03037e+01
18
# CELL(abcABC):   37.79452    37.79452    37.79452    90.00000    90.00000    90.00000  Step:          15  Bead:       0 positions{angstrom}  cell{atomic_unit}
       H  1.03191e+01  9.65568e+00  8.50412e+00
       H  1.16597e+01  1.03554e+01  8.89305e+00
       H  1.02044e+01  1.03042e+01  1.15123e+01
       H  1.01890e+01  8.84398e+00  1.10262e+01
       H  1.21679e+01  9.76384e+00  1.08666e+01
       H  1.36161e+01  9.50625e+00  1.02746e+01
       H  8.31642e+00  8.78832e+00  9.59850e+00
       H  8.98007e+00  7.43669e+00  9.08113e+00
       H  6.58448e+00  9.96234e+00  1.06931e+01
       H  7.82766e+00  1.07747e+01  1.01351e+01
       H  9.90589e+00  1.13410e+01  9.52533e+00
       H  9.37738e+00  1.26226e+01  1.03346e+01
       O  1.07886e+01  1.05191e+01  8.43802e+00
       O  1.06476e+01  9.43859e+00  1.16653e+01
       O  1.28439e+01  1.00910e+01  1.02041e+01
       O  9.18822e+00  8.31887e+00  9.43070e+00
       O  7.18141e+00  1.00384e+01  9.93486e+00
       O  9.31907e+00  1.16539e+01  1.03050e+01
18
# CELL(abcABC):   37.79452    37.79452    37.79452    90.00000    90.00000    90.00000  Step:          16  Bead:       0 positions{angstrom}  cell{atomic_unit}
       H  1.03156e+01  9.65751e+00  8.50661e+00
       H  1.16539e+01  1.03577e+01  8.90162e+00
       H  1.02085e+01  1.03046e+01  1.15095e+01
       H  1.01896e+01  8.84437e+00  1.10240e+01
       H  1.21620e+01  9.76224e+00  1.08671e+01
       H  1.36048e+01  9.50096e+00  1.02645e+01
       H  8.31827e+00  8.80385e+00  9.59184e+00
       H  8.97703e+00  7.44431e+00  9.08669e+00
       H  6.60459e+00  9.96101e+00  1.07002e+01
       H  7.83798e+00  1.07696e+01  1.01215e+01
       H  9.90842e+00  1.13359e+01  9.52448e+00
       H  9.37183e+00  1.26177e+01  1.03350e+01
       O  1.07862e+01  1.05217e+01  8.44036e+00
       O  1.06462e+01  9.43526e+00  1.16664e+01
       O  1.28374e+01  1.00909e+01  1.02033e+01
       O  9.18861e+00  8.32304e+00  9.44794e+00
       O  7.18255e+00  1.00433e+01  9.92494e+00
       O  9.32329e+00  1.16411e+01  1.03065e+01
18
# CELL(abcABC):   37.79452    37.79452    37.79452    90.00000    90.00000    90.00000  Step:          17  Bead:       0 positions{angstrom}  cell{atomic_unit}
       H  1.03161e+01  9.65709e+00  8.50585e+00
       H  1.16544e+01  1.03577e+01  8.90003e+00
       H  1.02081e+01  1.03041e+01  1.15102e+01
       H  1.01887e+01  8.84376e+00  1.10242e+01
       H  1.21632e+01  9.76285e+00  1.08671e+01
       H  1.36068e+01  9.50130e+00  1.02657e+01
       H  8.31964e+00  8.80281e+00  9.59120e+00
       H  8.97680e+00  7.44368e+00  9.08622e+00
       H  6.60148e+00  9.96267e+00  1.07002e+01
       H  7.83522e+00  1.07695e+01  1.01240e+01
       H  9.90927e+00  1.13372e+01  9.52486e+00
       H  9.37262e+00  1.26171e+01  1.03345e+01
       O  1.07859e+01  1.05207e+01  8.43962e+00
       O  1.06459e+01  9.43593e+00  1.16666e+01
       O  1.28385e+01  1.00909e+01  1.02035e+01
       O  9.18936e+00  8.32075e+00  9.44548e+00
       O  7.18108e+00  1.00403e+01  9.92589e+00
       O  9.32369e+00  1.16465e+01  1.03072e+01
18
# CELL(abcABC):   37.79452    37.79452    37.79452    90.00000    90.00000    90.00000  Step:          18  Bead:       0 positions{angstrom}  cell{atomic_unit}
       H  1.03161e+01  9.65669e+00  8.50541e+00
       H  1.16544e+01  1.03581e+01  8.89939e+00
       H  1.02079e+01  1.03039e+01  1.15107e+01
       H  1.01880e+01  8.84336e+00  1.10246e+01
       H  1.21635e+01  9.76325e+00  1.08673e+01
       H  1.36074e+01  9.50103e+00  1.02655e+01
       H  8.32123e+00  8.80312e+00  9.59039e+00
       H  8.97609e+00  7.44328e+00  9.08622e+00
       H  6.60106e+00  9.96394e+00  1.07013e+01
       H  7.83343e+00  1.07688e+01  1.01250e+01
       H  9.91017e+00  1.13380e+01  9.52551e+00
       H  9.37278e+00  1.26178e+01  1.03342e+01
       O  1.07855e+01  1.05202e+01  8.43930e+00
       O  1.06456e+01  9.43591e+00  1.16666e+01
       O  1.28388e+01  1.00907e+01  1.02038e+01
       O  9.19000e+00  8.32017e+00  9.44464e+00
       O  7.18032e+00  1.00385e+01  9.92520e+00
       O  9.32457e+00  1.16482e+01  1.03076e+01
18
# CELL(abcABC):   37.79452    37.79452    37.79452    90.00000    90.00000    90.00000  Step:          19  Bead:       0 positions{angstrom}  cell{atomic_unit}
       H  1.03156e+01  9.65625e+00  8.50518e+00
       H  1.16538e+01  1.03588e+01  8.89944e+00
       H  1.02080e+01  1.03037e+01  1.15111e+01
       H  1.01870e+01  8.84288e+00  1.10251e+01
       H  1.21631e+01  9.76347e+00  1.08677e+01
       H  1.36067e+01  9.49998e+00  1.02639e+01
       H  8.32325e+00  8.80500e+00  9.58931e+00
       H  8.97477e+00  7.44361e+00  9.08700e+00
       H  6.60326e+00  9.96500e+00  1.07032e+01
       H  7.83248e+00  1.07678e+01  1.01245e+01
       H  9.91168e+00  1.13384e+01  9.52632e+00
       H  9.37229e+00  1.26183e+01  1.03339e+01
       O  1.07848e+01  1.05199e+01  8.43917e+00
       O  1.06453e+01  9.43546e+00  1.16666e+01
       O  1.28384e+01  1.00905e+01  1.02040e+01
       O  9.19101e+00  8.32023e+00  9.44450e+00
       O  7.17943e+00  1.00371e+01  9.92346e+00
       O  9.32599e+00  1.16486e+01  1.03082e+01
18
# CELL(abcABC):   37.79452    37.79452    37.79452    90.00000    90.00000    90.00000  Step:          20  Bead:       0 positions{angstrom}  cell{atomic_unit}
       H  1.03150e+01  9.65576e+00  8.50510e+00
       H  1.16528e+01  1.03597e+01  8.89981e+00
       H  1.02083e+01  1.03032e+01  1.15119e+01
       H  1.01854e+01  8.84222e+00  1.10260e+01
       H  1.21622e+01  9.76345e+00  1.08684e+01
       H  1.36047e+01  9.49811e+00  1.02608e+01
       H  8.32593e+00  8.80778e+00  9.58854e+00
       H  8.97274e+00  7.44410e+00  9.08843e+00
       H  6.60776e+00  9.96536e+00  1.07058e+01
       H  7.83207e+00  1.07666e+01  1.01224e+01
       H  9.91389e+00  1.13388e+01  9.52738e+00
       H  9.37124e+00  1.26184e+01  1.03336e+01
       O  1.07837e+01  1.05196e+01  8.43912e+00
       O  1.06452e+01  9.43484e+00  1.16666e+01
       O  1.28373e+01  1.00903e+01  1.02043e+01
       O  9.19230e+00  8.32146e+00  9.44387e+00
       O  7.17854e+00  1.00367e+01  9.92166e+00
       O  9.32772e+00  1.16486e+01  1.03092e+01
18
# CELL(abcABC):   37.79452    37.79452    37.79452    90.00000    90.00000    90.00000  Step:          21  Bead:       0 positions{angstrom}  cell{atomic_unit}
       H  1.03133e+01  9.65402e+00  8.50517e+00
       H  1.16499e+01  1.03619e+01  8.90061e+00
       H  1.02086e+01  1.03021e+01  1.15142e+01
       H  1.01808e+01  8.84054e+00  1.10293e+01
       H  1.21597e+01  9.76273e+00  1.08704e+01
       H  1.35978e+01  9.49221e+00  1.02510e+01
       H  8.33230e+00  8.81589e+00  9.58789e+00
       H  8.96734e+00  7.44762e+00  9.09389e+00
       H  6.62098e+00  9.96447e+00  1.07133e+01
       H  7.83290e+00  1.07652e+01  1.01147e+01
       H  9.91997e+00  1.13398e+01  9.53078e+00
       H  9.36808e+00  1.26195e+01  1.03328e+01
       O  1.07812e+01  1.05193e+01  8.43908e+00
       O  1.06453e+01  9.43232e+00  1.16665e+01
       O  1.28339e+01  1.00899e+01  1.02049e+01
       O  9.19630e+00  8.32306e+00  9.43900e+00
       O  7.17607e+00  1.00367e+01  9.91718e+00
       O  9.33242e+00  1.16475e+01  1.03119e+01
18
# CELL(abcABC):   37.79452    37.79452    37.79452    90.00000    90.00000    90.00000  Step:          22  Bead:       0 positions{angstrom}  cell{atomic_unit}
       H  1.03133e+01  9.65393e+00  8.50533e+00
       H  1.16496e+01  1.03620e+01  8.90064e+00
       H  1.02086e+01  1.03016e+01  1.15151e+01
       H  1.01797e+01  8.84010e+00  1.10303e+01
       H  1.21592e+01  9.76217e+00  1.08707e+01
       H  1.35958e+01  9.49076e+00  1.02486e+01
       H  8.33363e+00  8.81662e+00  9.58888e+00
       H  8.96585e+00  7.44654e+00  9.09455e+00
       H  6.62397e+00  9.96285e+00  1.07145e+01
       H  7.83382e+00  1.07659e+01  1.01121e+01
       H  9.92107e+00  1.13399e+01  9.53139e+00
       H  9.36735e+00  1.26192e+01  1.03327e+01
       O  1.07806e+01  1.05193e+01  8.43904e+00
       O  1.06455e+01  9.43226e+00  1.16666e+01
       O  1.28330e+01  1.00900e+01  1.02050e+01
       O  9.19675e+00  8.32611e+00  9.43716e+00
       O  7.17625e+00  1.00381e+01  9.91749e+00
       O  9.33278e+00  1.16477e+01  1.03126e+01
18
# CELL(abcABC):   37.79452    37.79452    37.79452    90.00000    90.00000    90.00000  Step:          23  Bead:       0 positions{angstrom}  cell{atomic_unit}
       H  1.03136e+01  9.65400e+00  8.50557e+00
       H  1.16496e+01  1.03617e+01  8.90053e+00
       H  1.02084e+01  1.03012e+01  1.15158e+01
       H  1.01792e+01  8.83991e+00  1.10311e+01
       H  1.21590e+01  9.76146e+00  1.08707e+01
       H  1.35939e+01  9.48960e+00  1.02469e+01
       H  8.33377e+00  8.81684e+00  9.59029e+00
       H  8.96520e+00  7.44644e+00  9.09536e+00
       H  6.62594e+00  9.96072e+00  1.07151e+01
       H  7.83525e+00  1.07673e+01  1.01096e+01
       H  9.92144e+00  1.13399e+01  9.53176e+00
       H  9.36686e+00  1.26188e+01  1.03328e+01
       O  1.07804e+01  1.05194e+01  8.43906e+00
       O  1.06457e+01  9.43218e+00  1.16668e+01
       O  1.28323e+01  1.00902e+01  1.02051e+01
       O  9.19678e+00  8.32762e+00  9.43479e+00
       O  7.17686e+00  1.00399e+01  9.91847e+00
       O  9.33260e+00  1.16476e+01  1.03130e+01
18
# CELL(abcABC):   37.79452    37.79452    37.79452    90.00000    90.00000    90.00000  Step:          24  Bead:       0 positions{angstrom}  cell{atomic_unit}
       H  1.03135e+01  9.65414e+00  8.50591e+00
       H  1.16489e+01  1.03616e+01  8.90075e+00
       H  1.02085e+01  1.03006e+01  1.15171e+01
       H  1.01780e+01  8.83945e+00  1.10324e+01
       H  1.21582e+01  9.76022e+00  1.08706e+01
       H  1.35899e+01  9.48667e+00  1.02424e+01
       H  8.33464e+00  8.81914e+00  9.59151e+00
       H  8.96360e+00  7.44727e+00  9.09750e+00
       H  6.63148e+00  9.95775e+00  1.07179e+01
       H  7.83785e+00  1.07696e+01  1.01052e+01
       H  9.92257e+00  1.13397e+01  9.53263e+00
       H  9.36555e+00  1.26180e+01  1.03327e+01
       O  1.07800e+01  1.05198e+01  8.43921e+00
       O  1.06455e+01  9.43145e+00  1.16677e+01
       O  1.28306e+01  1.00906e+01  1.02051e+01
       O  9.19701e+00  8.32956e+00  9.43184e+00
       O  7.17787e+00  1.00419e+01  9.91814e+00
       O  9.33313e+00  1.16475e+01  1.03139e+01
18
# CELL(abcABC):   37.79452    37.79452    37.79452    90.00000    90.00000    90.00000  Step:          25  Bead:       0 positions{angstrom}  cell{atomic_unit}
       H  1.03136e+01  9.65495e+00  8.50598e+00
       H  1.16489e+01  1.03611e+01  8.90080e+00
       H  1.02084e+01  1.02999e+01  1.15189e+01
       H  1.01773e+01  8.83894e+00  1.10335e+01
       H  1.21573e+01  9.75862e+00  1.08697e+01
       H  1.35851e+01  9.48299e+00  1.02371e+01
       H  8.33493e+00  8.82183e+00  9.59213e+00
       H  8.96203e+00  7.44789e+00  9.09966e+00
       H  6.63921e+00  9.95487e+00  1.07202e+01
       H  7.84002e+00  1.07730e+01  1.01016e+01
       H  9.92289e+00  1.13395e+01  9.53359e+00
       H  9.36437e+00  1.26185e+01  1.03328e+01
       O  1.07796e+01  1.05204e+01  8.43932e+00
       O  1.06443e+01  9.43067e+00  1.16697e+01
       O  1.28294e+01  1.00909e+01  1.02050e+01
       O  9.19651e+00  8.33111e+00  9.42914e+00
       O  7.17954e+00  1.00432e+01  9.91897e+00
       O  9.33343e+00  1.16465e+01  1.03145e+01
18
# CELL(abcABC):   37.79452    37.79452    37.79452    90.00000    90.00000    90.00000  Step:          26  Bead:       0 positions{angstrom}  cell{atomic_unit}
       H  1.03133e+01  9.65520e+00  8.50588e+00
       H  1.16486e+01  1.03610e+01  8.90085e+00
       H  1.02084e+01  1.02997e+01  1.15200e+01
       H  1.01769e+01  8.83871e+00  1.10341e+01
       H  1.21566e+01  9.75789e+00  1.08692e+01
       H  1.35826e+01  9.48059e+00  1.02338e+01
       H  8.33535e+00  8.82390e+00  9.59175e+00
       H  8.96095e+00  7.44840e+00  9.10094e+00
       H  6.64370e+00  9.95384e+00  1.07225e+01
       H  7.84057e+00  1.07742e+01  1.00999e+01
       H  9.92335e+00  1.13393e+01  9.53399e+00
       H  9.36366e+00  1.26181e+01  1.03328e+01
       O  1.07797e+01  1.05208e+01  8.43943e+00
       O  1.06434e+01  9.42976e+00  1.16710e+01
       O  1.28286e+01  1.00912e+01  1.02049e+01
       O  9.19641e+00  8.33166e+00  9.42839e+00
       O  7.18105e+00  1.00437e+01  9.91822e+00
       O  9.33376e+00  1.16469e+01  1.03150e+01
18
# CELL(abcABC):   37.79452    37.79452    37.79452    90.00000    90.00000    90.00000  Step:          27  Bead:       0 positions{angstrom}  cell{atomic_unit}
       H  1.03128e+01  9.65611e+00  8.50535e+00
       H  1.16487e+01  1.03608e+01  8.90080e+00
       H  1.02081e+01  1.02992e+01  1.15221e+01
       H  1.01765e+01  8.83834e+00  1.10348e+01
       H  1.21553e+01  9.75650e+00  1.08677e+01
       H  1.35779e+01  9.47577e+00  1.02273e+01
       H  8.33564e+00  8.82771e+00  9.59019e+00
       H  8.95900e+00  7.44887e+00  9.10295e+00
       H  6.65285e+00  9.95242e+00  1.07266e+01
       H  7.84097e+00  1.07770e+01  1.00980e+01
       H  9.92350e+00  1.13390e+01  9.53457e+00
       H  9.36268e+00  1.26182e+01  1.03327e+01
       O  1.07800e+01  1.05216e+01  8.43963e+00
       O  1.06412e+01  9.42804e+00  1.16741e+01
       O  1.28275e+01  1.00914e+01  1.02047e+01
       O  9.19578e+00  8.33239e+00  9.42795e+00
       O  7.18441e+00  1.00438e+01  9.91728e+00
       O  9.33404e+00  1.16476e+01  1.03157e+01
18
# CELL(abcABC):   37.79452    37.79452    37.79452    90.00000    90.00000    90.00000  Step:          28  Bead:       0 positions{angstrom}  cell{atomic_unit}
       H  1.03124e+01  9.65701e+00  8.50464e+00
       H  1.16492e+01  1.03606e+01  8.90072e+00
       H  1.02078e+01  1.02986e+01  1.15238e+01
       H  1.01762e+01  8.83824e+00  1.10351e+01
       H  1.21543e+01  9.75571e+00  1.08665e+01
       H  1.35750e+01  9.47229e+00  1.02229e+01
       H  8.33551e+00  8.82976e+00  9.58860e+00
       H  8.95766e+00  7.44887e+00  9.10397e+00
       H  6.65910e+00  9.95151e+00  1.07291e+01
       H  7.84124e+00  1.07791e+01  1.00976e+01
       H  9.92311e+00  1.13391e+01  9.53480e+00
       H  9.36250e+00  1.26187e+01  1.03326e+01
       O  1.07803e+01  1.05222e+01  8.43973e+00
       O  1.06395e+01  9.42702e+00  1.16763e+01
       O  1.28271e+01  1.00913e+01  1.02045e+01
       O  9.19532e+00  8.33274e+00  9.42829e+00
       O  7.18670e+00  1.00438e+01  9.91737e+00
       O  9.33379e+00  1.16482e+01  1.03160e+01
18
# CELL(abcABC):   37.79452    37.79452    37.79452    90.00000    90.00000    90.00000  Step:          29  Bead:       0 positions{angstrom}  cell{atomic_unit}
       H  1.03116e+01  9.65847e+00  8.50272e+00