18
# CELL(abcABC):   37.79452    37.79452    37.79452    90.00000    90.00000    90.00000  Step:           0  Bead:       0 positions{angstrom}  cell{atomic_unit}
       H  1.03392e+01  9.64635e+00  8.49008e+00
       H  1.16501e+01  1.03499e+01  8.85357e+00
       H  1.01918e+01  1.02897e+01  1.15198e+01
       H  1.01764e+01  8.85076e+00  1.10388e+01
       H  1.22134e+01  9.77340e+00  1.08594e+01
       H  1.36405e+01  9.51980e+00  1.03080e+01
       H  8.36643e+00  8.76149e+00  9.56198e+00
       H  8.96367e+00  7.41550e+00  9.06625e+00
       H  6.40000e+00  9.95009e+00  1.07541e+01
       H  7.81957e+00  1.07631e+01  1.01263e+01
       H  9.90852e+00  1.13924e+01  9.55628e+00
       H  9.40590e+00  1.26631e+01  1.03164e+01
       O  1.07862e+01  1.05053e+01  8.42595e+00
       O  1.06297e+01  9.43712e+00  1.16657e+01
       O  1.28737e+01  1.00891e+01  1.02074e+01
       O  9.20929e+00  8.28133e+00  9.40365e+00
       O  7.20149e+00  1.00225e+01  9.95757e+00
       O  9.34087e+00  1.17040e+01  1.03114e+01
18
# CELL(abcABC):   37.79452    37.79452    37.79452    90.00000    90.00000    90.00000  Step:           1  Bead:       0 positions{angstrom}  cell{atomic_unit}
       H  1.03366e+01  9.64250e+00  8.49023e+00
       H  1.16546e+01  1.03496e+01  8.85575e+00
       H  1.01900e+01  1.02940e+01  1.15195e+01
       H  1.01745e+01  8.84757e+00  1.10360e+01
       H  1.22094e+01  9.77217e+00  1.08627e+01
       H  1.36440e+01  9.51761e+00  1.03079e+01
       H  8.36215e+00  8.76433e+00  9.56336e+00
       H  8.96323e+00  7.41183e+00  9.06486e+00
       H  6.42641e+00  9.95473e+00  1.07311e+01
       H  7.82066e+00  1.07681e+01  1.01308e+01
       H  9.91145e+00  1.13901e+01  9.55229e+00
       H  9.40571e+00  1.26670e+01  1.03169e+01
       O  1.07845e+01  1.05095e+01  8.42355e+00
       O  1.06336e+01  9.43599e+00  1.16690e+01
       O  1.28741e+01  1.00924e+01  1.02041e+01
       O  9.21375e+00  8.28245e+00  9.40406e+00
       O  7.17429e+00  1.00132e+01  9.97588e+00
       O  9.33793e+00  1.17019e+01  1.03147e+01
18
# CELL(abcABC):   37.79452    37.79452    37.79452    90.00000    90.00000    90.00000  Step:           2  Bead:       0 positions{angstrom}  cell{atomic_unit}
       H  1.03318e+01  9.63892e+00  8.48999e+00
       H  1.16615e+01  1.03509e+01  8.85913e+00
       H  1.01894e+01  1.02992e+01  1.15205e+01
       H  1.01737e+01  8.84263e+00  1.10334e+01
       H  1.22013e+01  9.77181e+00  1.08670e+01
       H  1.36484e+01  9.51589e+00  1.03057e+01
       H  8.35591e+00  8.76885e+00  9.56728e+00
       H  8.96463e+00  7.40786e+00  9.06360e+00
       H  6.49935e+00  9.96955e+00  1.06711e+01
       H  7.79736e+00  1.07549e+01  1.01413e+01
       H  9.91717e+00  1.13830e+01  9.54405e+00
       H  9.40333e+00  1.26708e+01  1.03191e+01
       O  1.07829e+01  1.05127e+01  8.42146e+00
       O  1.06365e+01  9.43557e+00  1.16706e+01
       O  1.28753e+01  1.00941e+01  1.02015e+01
       O  9.21569e+00  8.28429e+00  9.40381e+00
       O  7.13027e+00  1.00137e+01  1.00241e+01
       O  9.33215e+00  1.17002e+01  1.03189e+01
18
# CELL(abcABC):   37.79452    37.79452    37.79452    90.00000    90.00000    90.00000  Step:           3  Bead:       0 positions{angstrom}  cell{atomic_unit}
       H  1.03329e+01  9.63971e+00  8.49006e+00
       H  1.16598e+01  1.03507e+01  8.85833e+00
       H  1.01894e+01  1.02983e+01  1.15202e+01
       H  1.01739e+01  8.84369e+00  1.10339e+01
       H  1.22033e+01  9.77198e+00  1.08658e+01
       H  1.36477e+01  9.51607e+00  1.03062e+01
       H  8.35742e+00  8.76758e+00  9.56641e+00
       H  8.96428e+00  7.40871e+00  9.06387e+00
       H  6.46500e+00  9.96552e+00  1.07037e+01
       H  7.80380e+00  1.07602e+01  1.01401e+01
       H  9.91533e+00  1.13848e+01  9.54660e+00
       H  9.40381e+00  1.26700e+01  1.03187e+01
       O  1.07835e+01  1.05120e+01  8.42210e+00
       O  1.06361e+01  9.43550e+00  1.16704e+01
       O  1.28745e+01  1.00938e+01  1.02023e+01
       O  9.21487e+00  8.28432e+00  9.40398e+00
       O  7.15731e+00  1.00120e+01  9.99291e+00
       O  9.33403e+00  1.17000e+01  1.03171e+01
18
# CELL(abcABC):   37.79452    37.79452    37.79452    90.00000    90.00000    90.00000  Step:           4  Bead:       0 positions{angstrom}  cell{atomic_unit}
       H  1.03320e+01  9.63960e+00  8.48997e+00
       H  1.16607e+01  1.03512e+01  8.85882e+00
       H  1.01897e+01  1.02990e+01  1.15206e+01
       H  1.01741e+01  8.84289e+00  1.10338e+01
       H  1.22018e+01  9.77225e+00  1.08662e+01
       H  1.36482e+01  9.51599e+00  1.03054e+01
       H  8.35644e+00  8.76826e+00  9.56739e+00
       H  8.96489e+00  7.40848e+00  9.06386e+00
       H  6.47509e+00  9.96900e+00  1.06976e+01
       H  7.79881e+00  1.07586e+01  1.01436e+01
       H  9.91590e+00  1.13833e+01  9.54559e+00
       H  9.40306e+00  1.26700e+01  1.03194e+01
       O  1.07836e+01  1.05119e+01  8.42221e+00
       O  1.06362e+01  9.43559e+00  1.16701e+01
       O  1.28744e+01  1.00935e+01  1.02024e+01
       O  9.21418e+00  8.28472e+00  9.40380e+00
       O  7.15418e+00  1.00107e+01  9.99504e+00
       O  9.33353e+00  1.16998e+01  1.03168e+01
18
# CELL(abcABC):   37.79452    37.79452    37.79452    90.00000    90.00000    90.00000  Step:           5  Bead:       0 positions{angstrom}  cell{atomic_unit}
       H  1.03302e+01  9.63982e+00  8.48981e+00
       H  1.16620e+01  1.03525e+01  8.85975e+00
       H  1.01903e+01  1.03003e+01  1.15213e+01
       H  1.01748e+01  8.84143e+00  1.10336e+01
       H  1.21990e+01  9.77298e+00  1.08665e+01
       H  1.36492e+01  9.51596e+00  1.03038e+01
       H  8.35448e+00  8.76941e+00  9.56958e+00
       H  8.96629e+00  7.40832e+00  9.06400e+00
       H  6.48983e+00  9.97603e+00  1.06921e+01
       H  7.78959e+00  1.07571e+01  1.01516e+01
       H  9.91642e+00  1.13802e+01  9.54415e+00
       H  9.40135e+00  1.26696e+01  1.03209e+01
       O  1.07843e+01  1.05113e+01  8.42283e+00
       O  1.06363e+01  9.43591e+00  1.16692e+01
       O  1.28740e+01  1.00925e+01  1.02033e+01
       O  9.21211e+00  8.28582e+00  9.40343e+00
       O  7.15359e+00  1.00066e+01  9.99136e+00
       O  9.33307e+00  1.16991e+01  1.03153e+01
18
# CELL(abcABC):   37.79452    37.79452    37.79452    90.00000    90.00000    90.00000  Step:           6  Bead:       0 positions{angstrom}  cell{atomic_unit}
       H  1.03284e+01  9.64037e+00  8.48977e+00
       H  1.16634e+01  1.03539e+01  8.86096e+00
       H  1.01911e+01  1.03016e+01  1.15220e+01
       H  1.01757e+01  8.83998e+00  1.10336e+01
       H  1.21957e+01  9.77375e+00  1.08667e+01
       H  1.36498e+01  9.51598e+00  1.03018e+01
       H  8.35177e+00  8.77057e+00  9.57246e+00
       H  8.96801e+00  7.40853e+00  9.06433e+00
       H  6.50235e+00  9.98343e+00  1.06908e+01
       H  7.78065e+00  1.07569e+01  1.01606e+01
       H  9.91659e+00  1.13765e+01  9.54268e+00
       H  9.39927e+00  1.26684e+01  1.03227e+01
       O  1.07852e+01  1.05106e+01  8.42378e+00
       O  1.06365e+01  9.43642e+00  1.16681e+01
       O  1.28732e+01  1.00912e+01  1.02044e+01
       O  9.20955e+00  8.28734e+00  9.40303e+00
       O  7.15696e+00  1.00015e+01  9.98161e+00
       O  9.33259e+00  1.16980e+01  1.03132e+01
18
# CELL(abcABC):   37.79452    37.79452    37.79452    90.00000    90.00000    90.00000  Step:           7  Bead:       0 positions{angstrom}  cell{atomic_unit}
       H  1.03267e+01  9.64183e+00  8.49073e+00
       H  1.16644e+01  1.03548e+01  8.86346e+00
       H  1.01923e+01  1.03025e+01  1.15220e+01
       H  1.01774e+01  8.83961e+00  1.10334e+01
       H  1.21921e+01  9.77367e+00  1.08666e+01
       H  1.36486e+01  9.51553e+00  1.02991e+01
       H  8.34711e+00  8.77083e+00  9.57737e+00
       H  8.97021e+00  7.40994e+00  9.06535e+00
       H  6.51365e+00  9.98623e+00  1.06920e+01
       H  7.77756e+00  1.07579e+01  1.01650e+01
       H  9.91533e+00  1.13718e+01  9.54067e+00
       H  9.39668e+00  1.26650e+01  1.03248e+01
       O  1.07865e+01  1.05105e+01  8.42559e+00
       O  1.06377e+01  9.43712e+00  1.16668e+01
       O  1.28703e+01  1.00903e+01  1.02054e+01
       O  9.20602e+00  8.29140e+00  9.40328e+00
       O  7.16342e+00  1.00021e+01  9.97026e+00
       O  9.33084e+00  1.16938e+01  1.03107e+01
18
# CELL(abcABC):   37.79452    37.79452    37.79452    90.00000    90.00000    90.00000  Step:           8  Bead:       0 positions{angstrom}  cell{atomic_unit}
       H  1.03259e+01  9.64316e+00  8.49170e+00
       H  1.16648e+01  1.03550e+01  8.86553e+00
       H  1.01932e+01  1.03028e+01  1.15216e+01
       H  1.01786e+01  8.83972e+00  1.10331e+01
       H  1.21895e+01  9.77306e+00  1.08668e+01
       H  1.36462e+01  9.51568e+00  1.02972e+01
       H  8.34335e+00  8.77101e+00  9.58092e+00
       H  8.97192e+00  7.41237e+00  9.06663e+00
       H  6.52001e+00  9.98568e+00  1.06929e+01
       H  7.77959e+00  1.07605e+01  1.01658e+01
       H  9.91417e+00  1.13687e+01  9.53918e+00
       H  9.39491e+00  1.26607e+01  1.03261e+01
       O  1.07872e+01  1.05107e+01  8.42680e+00
       O  1.06389e+01  9.43779e+00  1.16662e+01
       O  1.28691e+01  1.00896e+01  1.02056e+01
       O  9.20375e+00  8.29331e+00  9.40334e+00
       O  7.16640e+00  1.00034e+01  9.96376e+00
       O  9.32937e+00  1.16917e+01  1.03094e+01
18
# CELL(abcABC):   37.79452    37.79452    37.79452    90.00000    90.00000    90.00000  Step:           9  Bead:       0 positions{angstrom}  cell{atomic_unit}
       H  1.03250e+01  9.64491e+00  8.49329e+00
       H  1.16651e+01  1.03550e+01  8.86865e+00
       H  1.01944e+01  1.03031e+01  1.15207e+01
       H  1.01802e+01  8.84025e+00  1.10326e+01
       H  1.21864e+01  9.77202e+00  1.08668e+01
       H  1.36433e+01  9.51500e+00  1.02947e+01
       H  8.33834e+00  8.77097e+00  9.58577e+00
       H  8.97387e+00  7.41485e+00  9.06810e+00
       H  6.52833e+00  9.98295e+00  1.06934e+01
       H  7.78432e+00  1.07638e+01  1.01646e+01
       H  9.91225e+00  1.13647e+01  9.53720e+00
       H  9.39266e+00  1.26558e+01  1.03277e+01
       O  1.07881e+01  1.05115e+01  8.42856e+00
       O  1.06407e+01  9.43847e+00  1.16655e+01
       O  1.28658e+01  1.00895e+01  1.02059e+01
       O  9.20071e+00  8.29770e+00  9.40438e+00
       O  7.17024e+00  1.00079e+01  9.95713e+00
       O  9.32704e+00  1.16866e+01  1.03077e+01
18
# CELL(abcABC):   37.79452    37.79452    37.79452    90.00000    90.00000    90.00000  Step:          10  Bead:       0 positions{angstrom}  cell{atomic_unit}
       H  1.03229e+01  9.64949e+00  8.49769e+00
       H  1.16655e+01  1.03547e+01  8.87713e+00
       H  1.01975e+01  1.03038e+01  1.15181e+01
       H  1.01846e+01  8.84200e+00  1.10311e+01
       H  1.21784e+01  9.76876e+00  1.08669e+01
       H  1.36340e+01  9.51361e+00  1.02882e+01
       H  8.32522e+00  8.77168e+00  9.59770e+00
       H  8.97889e+00  7.42272e+00  9.07251e+00
       H  6.54969e+00  9.97359e+00  1.06927e+01
       H  7.79925e+00  1.07718e+01  1.01582e+01
       H  9.90755e+00  1.13542e+01  9.53165e+00
       H  9.38689e+00  1.26418e+01  1.03316e+01
       O  1.07902e+01  1.05139e+01  8.43290e+00
       O  1.06455e+01  9.43996e+00  1.16639e+01
       O  1.28582e+01  1.00892e+01  1.02059e+01
       O  9.19338e+00  8.30780e+00  9.40776e+00
       O  7.17861e+00  1.00220e+01  9.94444e+00
       O  9.32062e+00  1.16739e+01  1.03044e+01
18
# CELL(abcABC):   37.79452    37.79452    37.79452    90.00000    90.00000    90.00000  Step:          11  Bead:       0 positions{angstrom}  cell{atomic_unit}
       H  1.03222e+01  9.65117e+00  8.49912e+00
       H  1.16653e+01  1.03547e+01  8.88027e+00
       H  1.01988e+01  1.03039e+01  1.15171e+01
       H  1.01859e+01  8.84232e+00  1.10303e+01
       H  1.21760e+01  9.76784e+00  1.08665e+01
       H  1.36317e+01  9.51206e+00  1.02858e+01
       H  8.32201e+00  8.77282e+00  9.60047e+00
       H  8.98011e+00  7.42464e+00  9.07378e+00
       H  6.55785e+00  9.97152e+00  1.06919e+01
       H  7.80548e+00  1.07758e+01  1.01564e+01
       H  9.90606e+00  1.13508e+01  9.53022e+00
       H  9.38485e+00  1.26377e+01  1.03329e+01
       O  1.07904e+01  1.05147e+01  8.43429e+00
       O  1.06467e+01  9.44054e+00  1.16637e+01
       O  1.28541e+01  1.00898e+01  1.02060e+01
       O  9.19069e+00  8.31203e+00  9.41057e+00
       O  7.17921e+00  1.00236e+01  9.94022e+00
       O  9.31938e+00  1.16689e+01  1.03031e+01
18
# CELL(abcABC):   37.79452    37.79452    37.79452    90.00000    90.00000    90.00000  Step:          12  Bead:       0 positions{angstrom}  cell{atomic_unit}
       H  1.03216e+01  9.65253e+00  8.50075e+00
       H  1.16648e+01  1.03544e+01  8.88340e+00
       H  1.01999e+01  1.03041e+01  1.15158e+01
       H  1.01873e+01  8.84321e+00  1.10295e+01
       H  1.21736e+01  9.76643e+00  1.08666e+01
       H  1.36277e+01  9.51133e+00  1.02835e+01
       H  8.31827e+00  8.77411e+00  9.60310e+00
       H  8.98126e+00  7.42769e+00  9.07548e+00
       H  6.56433e+00  9.96705e+00  1.06907e+01
       H  7.81235e+00  1.07774e+01  1.01512e+01
       H  9.90477e+00  1.13478e+01  9.52842e+00
       H  9.38307e+00  1.26332e+01  1.03338e+01
       O  1.07908e+01  1.05160e+01  8.43558e+00
       O  1.06481e+01  9.44050e+00  1.16636e+01
       O  1.28516e+01  1.00901e+01  1.02055e+01
       O  9.18897e+00  8.31495e+00  9.41318e+00
       O  7.18093e+00  1.00301e+01  9.93965e+00
       O  9.31749e+00  1.16642e+01  1.03028e+01
18
# CELL(abcABC):   37.79452    37.79452    37.79452    90.00000    90.00000    90.00000  Step:          13  Bead:       0 positions{angstrom}  cell{atomic_unit}
       H  1.03213e+01  9.65323e+00  8.50154e+00
       H  1.16638e+01  1.03544e+01  8.88539e+00
       H  1.02008e+01  1.03040e+01  1.15150e+01
       H  1.01877e+01  8.84349e+00  1.10288e+01
       H  1.21725e+01  9.76576e+00  1.08666e+01
       H  1.36253e+01  9.51037e+00  1.02819e+01
       H  8.31750e+00  8.77662e+00  9.60251e+00
       H  8.98115e+00  7.42951e+00  9.07657e+00
       H  6.56838e+00  9.96531e+00  1.06901e+01
       H  7.81597e+00  1.07767e+01  1.01471e+01
       H  9.90485e+00  1.13463e+01  9.52756e+00
       H  9.38201e+00  1.26308e+01  1.03339e+01
       O  1.07904e+01  1.05168e+01  8.43605e+00
       O  1.06482e+01  9.44021e+00  1.16640e+01
       O  1.28500e+01  1.00904e+01  1.02052e+01
       O  9.18881e+00  8.31589e+00  9.41653e+00
       O  7.18083e+00  1.00330e+01  9.94041e+00
       O  9.31737e+00  1.16621e+01  1.03034e+01
18
# CELL(abcABC):   37.79452    37.79452    37.79452    90.00000    90.00000    90.00000  Step:          14  Bead:       0 positions{angstrom}  cell{atomic_unit}
       H  1.03207e+01  9.65383e+00  8.50229e+00
       H  1.16627e+01  1.03546e+01  8.88750e+00
       H  1.02017e+01  1.03042e+01  1.15142e+01
       H  1.01881e+01  8.84373e+00  1.10281e+01
       H  1.21712e+01  9.76515e+00  1.08666e+01
       H  1.36226e+01  9.50933e+00  1.02799e+01
       H  8.31705e+00  8.77970e+00  9.60154e+00
       H  8.98090e+00  7.43145e+00  9.07779e+00
       H  6.57278e+00  9.96420e+00  1.06906e+01
       H  7.81933e+00  1.07761e+01  1.01435e+01
       H  9.90502e+00  1.13449e+01  9.52692e+00
       H  9.38079e+00  1.26288e+01  1.03341e+01
       O  1.07900e+01  1.05176e+01  8.43662e+00
       O  1.06481e+01  9.43963e+00  1.16643e+01
       O  1.28484e+01  1.00906e+01  1.02048e+01
       O  9.18863e+00  8.31682e+00  9.42041e+00
       O  7.18103e+00  1.00350e+01  9.93939e+00
       O  9.31769e+00  1.16593e+01  1.03038e+01
18
# CELL(abcABC):   37.79452    37.79452    37.79452    90.00000    90.00000    90.00000  Step:          15  Bead:       0 positions{angstrom}  cell{atomic_unit}
       H  1.03188e+01  9.65589e+00  8.50439e+00
       H  1.16592e+01  1.03555e+01  8.89386e+00
       H  1.02048e+01  1.03042e+01  1.15120e+01
       H  1.01891e+01  8.84405e+00  1.10259e+01
       H  1.21673e+01  9.76363e+00  1.08667e+01
       H  1.36150e+01  9.50583e+00  1.02737e+01
       H  8.31632e+00  8.78964e+00  9.59805e+00
       H  8.97989e+00  7.43754e+00  9.08166e+00
       H  6.58617e+00  9.96182e+00  1.06938e+01
       H  7.82882e+00  1.07741e+01  1.01336e+01
       H  9.90607e+00  1.13405e+01  9.52510e+00
       H  9.37688e+00  1.26217e+01  1.03346e+01
       O  1.07884e+01  1.05194e+01  8.43824e+00
       O  1.06476e+01  9.43835e+00  1.16655e+01
       O  1.28434e+01  1.00910e+01  1.02040e+01
       O  9.18826e+00  8.31916e+00  9.43224e+00
       O  7.18163e+00  1.00395e+01  9.93409e+00
       O  9.31926e+00  1.16530e+01  1.03053e+01
18
# CELL(abcABC):   37.79452    37.79452    37.79452    90.00000    90.00000    90.00000  Step:          16  Bead:       0 positions{angstrom}  cell{atomic_unit}
       H  1.03155e+01  9.65739e+00  8.50635e+00
       H  1.16537e+01  1.03580e+01  8.90143e+00
       H  1.02086e+01  1.03045e+01  1.15098e+01
       H  1.01892e+01  8.84411e+00  1.10242e+01
       H  1.21619e+01  9.76249e+00  1.08674e+01
       H  1.36045e+01  9.50112e+00  1.02641e+01
       H  8.31922e+00  8.80457e+00  9.59113e+00
       H  8.97667e+00  7.44481e+00  9.08699e+00
       H  6.60580e+00  9.96207e+00  1.07006e+01
       H  7.83673e+00  1.07688e+01  1.01222e+01
       H  9.90908e+00  1.13362e+01  9.52487e+00
       H  9.37177e+00  1.26183e+01  1.03349e+01
       O  1.07858e+01  1.05213e+01  8.44022e+00
       O  1.06459e+01  9.43509e+00  1.16664e+01
       O  1.28382e+01  1.00904e+01  1.02034e+01
       O  9.18895e+00  8.32206e+00  9.44774e+00
       O  7.18130e+00  1.00420e+01  9.92434e+00
       O  9.32404e+00  1.16417e+01  1.03067e+01
18
# CELL(abcABC):   37.79452    37.79452    37.79452    90.00000    90.00000    90.00000  Step:          17  Bead:       0 positions{angstrom}  cell{atomic_unit}
       H  1.03158e+01  9.65714e+00  8.50597e+00
       H  1.16542e+01  1.03579e+01  8.90048e+00
       H  1.02083e+01  1.03042e+01  1.15102e+01
       H  1.01887e+01  8.84371e+00  1.10243e+01
       H  1.21626e+01  9.76281e+00  1.08673e+01
       H  1.36063e+01  9.50094e+00  1.02649e+01
       H  8.31965e+00  8.80352e+00  9.59129e+00
       H  8.97668e+00  7.44419e+00  9.08660e+00
       H  6.60375e+00  9.96272e+00  1.07006e+01
       H  7.83539e+00  1.07692e+01  1.01238e+01
       H  9.90951e+00  1.13367e+01  9.52481e+00
       H  9.37219e+00  1.26168e+01  1.03346e+01
       O  1.07858e+01  1.05208e+01  8.43981e+00
       O  1.06460e+01  9.43576e+00  1.16665e+01
       O  1.28380e+01  1.00908e+01  1.02036e+01
       O  9.18920e+00  8.32120e+00  9.44595e+00
       O  7.18082e+00  1.00406e+01  9.92466e+00
       O  9.32388e+00  1.16458e+01  1.03072e+01
18
# CELL(abcABC):   37.79452    37.79452    37.79452    90.00000    90.00000    90.00000  Step:          18  Bead:       0 positions{angstrom}  cell{atomic_unit}
       H  1.03157e+01  9.65685e+00  8.50562e+00
       H  1.16542e+01  1.03583e+01  8.90005e+00
       H  1.02082e+01  1.03039e+01  1.15106e+01
       H  1.01880e+01  8.84329e+00  1.10246e+01
       H  1.21628e+01  9.76314e+00  1.08674e+01
       H  1.36066e+01  9.50056e+00  1.02645e+01
       H  8.32103e+00  8.80400e+00  9.59063e+00
       H  8.97600e+00  7.44394e+00  9.08672e+00
       H  6.60386e+00  9.96383e+00  1.07018e+01
       H  7.83389e+00  1.07686e+01  1.01245e+01
       H  9.91040e+00  1.13373e+01  9.52534e+00
       H  9.37218e+00  1.26170e+01  1.03344e+01
       O  1.07854e+01  1.05203e+01  8.43956e+00
       O  1.06457e+01  9.43581e+00  1.16665e+01
       O  1.28381e+01  1.00907e+01  1.02038e+01
       O  9.18977e+00  8.32086e+00  9.44526e+00
       O  7.18026e+00  1.00390e+01  9.92367e+00
       O  9.32468e+00  1.16473e+01  1.03076e+01
18
# CELL(abcABC):   37.79452    37.79452    37.79452    90.00000    90.00000    90.00000  Step:          19  Bead:       0 positions{angstrom}  cell{atomic_unit}
       H  1.03154e+01  9.65651e+00  8.50542e+00
       H  1.16537e+01  1.03589e+01  8.90003e+00
       H  1.02083e+01  1.03037e+01  1.15110e+01
       H  1.01871e+01  8.84288e+00  1.10250e+01
       H  1.21625e+01  9.76333e+00  1.08677e+01
       H  1.36061e+01  9.49968e+00  1.02632e+01
       H  8.32264e+00  8.80541e+00  9.58986e+00
       H  8.97492e+00  7.44410e+00  9.08731e+00
       H  6.60554e+00  9.96462e+00  1.07034e+01
       H  7.83306e+00  1.07679e+01  1.01241e+01
       H  9.91162e+00  1.13377e+01  9.52601e+00
       H  9.37180e+00  1.26174e+01  1.03342e+01
       O  1.07849e+01  1.05200e+01  8.43944e+00
       O  1.06455e+01  9.43551e+00  1.16665e+01
       O  1.28377e+01  1.00905e+01  1.02040e+01
       O  9.19060e+00  8.32099e+00  9.44492e+00
       O  7.17960e+00  1.00379e+01  9.92230e+00
       O  9.32579e+00  1.16478e+01  1.03080e+01
18
# CELL(abcABC):   37.79452    37.79452    37.79452    90.00000    90.00000    90.00000  Step:          20  Bead:       0 positions{angstrom}  cell{atomic_unit}
       H  1.03149e+01  9.65595e+00  8.50525e+00
       H  1.16529e+01  1.03597e+01  8.90008e+00
       H  1.02084e+01  1.03032e+01  1.15118e+01
       H  1.01855e+01  8.84224e+00  1.10260e+01
       H  1.21619e+01  9.76335e+00  1.08684e+01
       H  1.36044e+01  9.49816e+00  1.02605e+01
       H  8.32519e+00  8.80774e+00  9.58917e+00
       H  8.97303e+00  7.44452e+00  9.08860e+00
       H  6.60909e+00  9.96504e+00  1.07058e+01
       H  7.83235e+00  1.07670e+01  1.01224e+01
       H  9.91372e+00  1.13383e+01  9.52714e+00
       H  9.37099e+00  1.26178e+01  1.03338e+01
       O  1.07839e+01  1.05196e+01  8.43929e+00
       O  1.06454e+01  9.43497e+00  1.16665e+01
       O  1.28372e+01  1.00902e+01  1.02043e+01
       O  9.19197e+00  8.32169e+00  9.44369e+00
       O  7.17859e+00  1.00372e+01  9.92088e+00
       O  9.32745e+00  1.16482e+01  1.03090e+01
18
# CELL(abcABC):   37.79452    37.79452    37.79452    90.00000    90.00000    90.00000  Step:          21  Bead:       0 positions{angstrom}  cell{atomic_unit}
       H  1.03134e+01  9.65409e+00  8.50527e+00
       H  1.16499e+01  1.03618e+01  8.90063e+00
       H  1.02085e+01  1.03020e+01  1.15144e+01
       H  1.01806e+01  8.84048e+00  1.10295e+01
       H  1.21602e+01  9.76275e+00  1.08699e+01
       H  1.35988e+01  9.49058e+00  1.02506e+01
       H  8.33255e+00  8.81586e+00  9.58813e+00
       H  8.96682e+00  7.44651e+00  9.09362e+00
       H  6.62154e+00  9.96342e+00  1.07145e+01
       H  7.83327e+00  1.07656e+01  1.01134e+01
       H  9.92016e+00  1.13397e+01  9.53081e+00
       H  9.36782e+00  1.26191e+01  1.03328e+01
       O  1.07812e+01  1.05194e+01  8.43914e+00
       O  1.06454e+01  9.43243e+00  1.16665e+01
       O  1.28314e+01  1.00911e+01  1.02053e+01
       O  9.19620e+00  8.32506e+00  9.43892e+00
       O  7.17668e+00  1.00375e+01  9.91705e+00
       O  9.33238e+00  1.16474e+01  1.03121e+01
18
# CELL(abcABC):   37.79452    37.79452    37.79452    90.00000    90.00000    90.00000  Step:          22  Bead:       0 positions{angstrom}  cell{atomic_unit}
       H  1.03137e+01  9.65403e+00  8.50518e+00
       H  1.16501e+01  1.03617e+01  8.90016e+00
       H  1.02084e+01  1.03016e+01  1.15150e+01
       H  1.01801e+01  8.84027e+00  1.10301e+01
       H  1.21599e+01  9.76240e+00  1.08704e+01
       H  1.35971e+01  9.49138e+00  1.02500e+01
       H  8.33296e+00  8.81538e+00  9.58888e+00
       H  8.96645e+00  7.44613e+00  9.09380e+00
       H  6.62182e+00  9.96281e+00  1.07142e+01
       H  7.83316e+00  1.07663e+01  1.01130e+01
       H  9.92051e+00  1.13401e+01  9.53115e+00
       H  9.36785e+00  1.26191e+01  1.03327e+01
       O  1.07809e+01  1.05192e+01  8.43891e+00
       O  1.06455e+01  9.43269e+00  1.16666e+01
       O  1.28334e+01  1.00902e+01  1.02050e+01
       O  9.19640e+00  8.32545e+00  9.43688e+00
       O  7.17631e+00  1.00377e+01  9.91825e+00
       O  9.33233e+00  1.16484e+01  1.03124e+01
18
# CELL(abcABC):   37.79452    37.79452    37.79452    90.00000    90.00000    90.00000  Step:          23  Bead:       0 positions{angstrom}  cell{atomic_unit}
       H  1.03138e+01  9.65393e+00  8.50532e+00
       H  1.16498e+01  1.03616e+01  8.90005e+00
       H  1.02082e+01  1.03013e+01  1.15156e+01
       H  1.01793e+01  8.84006e+00  1.10309e+01
       H  1.21596e+01  9.76181e+00  1.08706e+01
       H  1.35951e+01  9.49047e+00  1.02482e+01
       H  8.33357e+00  8.81604e+00  9.58971e+00
       H  8.96562e+00  7.44631e+00  9.09471e+00
       H  6.62380e+00  9.96119e+00  1.07150e+01
       H  7.83425e+00  1.07672e+01  1.01107e+01
       H  9.92118e+00  1.13403e+01  9.53170e+00
       H  9.36736e+00  1.26192e+01  1.03327e+01
       O  1.07806e+01  1.05193e+01  8.43887e+00
       O  1.06456e+01  9.43242e+00  1.16668e+01
       O  1.28332e+01  1.00901e+01  1.02050e+01
       O  9.19674e+00  8.32643e+00  9.43481e+00
       O  7.17643e+00  1.00389e+01  9.91911e+00
       O  9.33255e+00  1.16484e+01  1.03129e+01
18
# CELL(abcABC):   37.79452    37.79452    37.79452    90.00000    90.00000    90.00000  Step:          24  Bead:       0 positions{angstrom}  cell{atomic_unit}
       H  1.03138e+01  9.65383e+00  8.50555e+00
       H  1.16492e+01  1.03616e+01  8.90006e+00
       H  1.02082e+01  1.03008e+01  1.15168e+01
       H  1.01782e+01  8.83964e+00  1.10321e+01
       H  1.21591e+01  9.76085e+00  1.08707e+01
       H  1.35918e+01  9.48808e+00  1.02446e+01
       H  8.33482e+00  8.81800e+00  9.59050e+00
       H  8.96400e+00  7.44678e+00  9.09645e+00
       H  6.62804e+00  9.95875e+00  1.07173e+01
       H  7.83610e+00  1.07687e+01  1.01067e+01
       H  9.92240e+00  1.13405e+01  9.53266e+00
       H  9.36634e+00  1.26190e+01  1.03325e+01
       O  1.07801e+01  1.05196e+01  8.43887e+00
       O  1.06454e+01  9.43173e+00  1.16674e+01
       O  1.28320e+01  1.00904e+01  1.02050e+01
       O  9.19727e+00  8.32804e+00  9.43211e+00
       O  7.17692e+00  1.00405e+01  9.91953e+00
       O  9.33322e+00  1.16482e+01  1.03138e+01
18
# CELL(abcABC):   37.79452    37.79452    37.79452    90.00000    90.00000    90.00000  Step:          25  Bead:       0 positions{angstrom}  cell{atomic_unit}
       H  1.03138e+01  9.65431e+00  8.50547e+00
       H  1.16491e+01  1.03612e+01  8.89981e+00
       H  1.02080e+01  1.03002e+01  1.15186e+01
       H  1.01773e+01  8.83906e+00  1.10332e+01
       H  1.21584e+01  9.75955e+00  1.08699e+01
       H  1.35878e+01  9.48453e+00  1.02397e+01
       H  8.33561e+00  8.82056e+00  9.59073e+00
       H  8.96232e+00  7.44711e+00  9.09838e+00
       H  6.63446e+00  9.95649e+00  1.07201e+01
       H  7.83746e+00  1.07714e+01  1.01037e+01
       H  9.92302e+00  1.13405e+01  9.53366e+00
       H  9.36534e+00  1.26193e+01  1.03325e+01
       O  1.07798e+01  1.05200e+01  8.43885e+00
       O  1.06442e+01  9.43084e+00  1.16693e+01
       O  1.28308e+01  1.00909e+01  1.02050e+01
       O  9.19707e+00  8.32923e+00  9.42945e+00
       O  7.17855e+00  1.00412e+01  9.91971e+00
       O  9.33368e+00  1.16485e+01  1.03145e+01
18
# CELL(abcABC):   37.79452    37.79452    37.79452    90.00000    90.00000    90.00000  Step:          26  Bead:       0 positions{angstrom}  cell{atomic_unit}
       H  1.03133e+01  9.65569e+00  8.50473e+00
       H  1.16488e+01  1.03600e+01  8.89861e+00
       H  1.02069e+01  1.02988e+01  1.15250e+01
       H  1.01751e+01  8.83783e+00  1.10371e+01
       H  1.21556e+01  9.75505e+00  1.08669e+01
       H  1.35742e+01  9.47214e+00  1.02227e+01
       H  8.33766e+00  8.82898e+00  9.59038e+00
       H  8.95620e+00  7.44627e+00  9.10394e+00
       H  6.65671e+00  9.94931e+00  1.07307e+01
       H  7.84015e+00  1.07799e+01  1.00950e+01
       H  9.92441e+00  1.13405e+01  9.53648e+00
       H  9.36245e+00  1.26210e+01  1.03323e+01
       O  1.07803e+01  1.05223e+01  8.43905e+00
       O  1.06393e+01  9.42625e+00  1.16763e+01
       O  1.28279e+01  1.00921e+01  1.02045e+01
       O  9.19632e+00  8.33459e+00  9.42251e+00
       O  7.18699e+00  1.00447e+01  9.91968e+00
       O  9.33436e+00  1.16494e+01  1.03168e+01
18
# CELL(abcABC):   37.79452    37.79452    37.79452    90.00000    90.00000    90.00000  Step:          27  Bead:       0 positions{angstrom}  cell{atomic_unit}
       H  1.03134e+01  9.65632e+00  8.50432e+00
       H  1.16498e+01  1.03599e+01  8.89865e+00
       H  1.02070e+01  1.02987e+01  1.15244e+01
       H  1.01759e+01  8.83800e+00  1.10358e+01
       H  1.21561e+01  9.75588e+00  1.08664e+01
       H  1.35771e+01  9.47333e+00  1.02251e+01
       H  8.33612e+00  8.82747e+00  9.58950e+00
       H  8.95777e+00  7.44692e+00  9.10290e+00
       H  6.65446e+00  9.95122e+00  1.07283e+01
       H  7.83910e+00  1.07796e+01  1.00988e+01
       H  9.92305e+00  1.13404e+01  9.53561e+00
       H  9.36346e+00  1.26210e+01  1.03324e+01
       O  1.07805e+01  1.05218e+01  8.43899e+00
       O  1.06393e+01  9.42738e+00  1.16763e+01
       O  1.28284e+01  1.00919e+01  1.02046e+01
       O  9.19562e+00  8.33191e+00  9.42447e+00
       O  7.18609e+00  1.00430e+01  9.92022e+00
       O  9.33354e+00  1.16500e+01  1.03160e+01
18
# CELL(abcABC):   37.79452    37.79452    37.79452    90.00000    90.00000    90.00000  Step:          28  Bead:       0 positions{angstrom}  cell{atomic_unit}
       H  1.03133e+01  9.65656e+00  8.50401e+00
       H  1.16503e+01  1.03600e+01  8.89862e+00
       H  1.02069e+01  1.02987e+01  1.15243e+01
       H  1.01762e+01  8.83818e+00  1.10353e+01
       H  1.21561e+01  9.75616e+00  1.08662e+01
       H  1.35777e+01  9.47366e+00  1.02256e+01
       H  8.33567e+00  8.82683e+00  9.58891e+00
       H  8.95810e+00  7.44673e+00  9.10237e+00
       H  6.65380e+00  9.95184e+00  1.07280e+01
       H  7.83863e+00  1.07795e+01  1.01003e+01
       H  9.92244e+00  1.13405e+01  9.53531e+00
       H  9.36395e+00  1.26212e+01  1.03324e+01
       O  1.07807e+01  1.05218e+01  8.43900e+00
       O  1.06392e+01  9.42754e+00  1.16764e+01
       O  1.28290e+01  1.00915e+01  1.02045e+01
       O  9.19535e+00  8.33141e+00  9.42553e+00
       O  7.18624e+00  1.00425e+01  9.92014e+00
       O  9.33313e+00  1.16503e+01  1.03156e+01
18
# CELL(abcABC):   37.79452    37.79452    37.79452    90.00000    90.00000    90.00000  Step:          29  Bead:       0 positions{angstrom}  cell{atomic_unit}
       H  1.03129e+01  9.65729e+00  8.50291e+00