18
# CELL(abcABC):   37.79452    37.79452    37.79452    90.00000    90.00000    90.00000  Step:          59  Bead:       0 positions{angstrom}  cell{atomic_unit}
       H  1.03107e+01  9.68510e+00  8.48531e+00
       H  1.16470e+01  1.03732e+01  8.90590e+00
       H  1.02062e+01  1.02932e+01  1.15386e+01
       H  1.01623e+01  8.84276e+00  1.10197e+01
       H  1.21448e+01  9.73708e+00  1.08566e+01
       H  1.35251e+01  9.38798e+00  1.01623e+01
       H  8.33772e+00  8.83640e+00  9.58760e+00
       H  8.94784e+00  7.44968e+00  9.10590e+00
       H  6.71252e+00  9.93034e+00  1.07837e+01
       H  7.85415e+00  1.07874e+01  1.01215e+01
       H  9.92320e+00  1.13605e+01  9.53486e+00
       H  9.37523e+00  1.26459e+01  1.03255e+01
       O  1.07832e+01  1.05480e+01  8.43797e+00
       O  1.06323e+01  9.41655e+00  1.16706e+01
       O  1.28250e+01  1.00603e+01  1.01952e+01
       O  9.19366e+00  8.33376e+00  9.42509e+00
       O  7.19704e+00  1.00519e+01  9.94967e+00
       O  9.33899e+00  1.16749e+01  1.03166e+01
