18
# CELL(abcABC):   37.79452    37.79452    37.79452    90.00000    90.00000    90.00000  Step:           0  Bead:       0 positions{angstrom}  cell{atomic_unit}
       H  1.03392e+01  9.64635e+00  8.49008e+00
       H  1.16501e+01  1.03499e+01  8.85357e+00
       H  1.01918e+01  1.02897e+01  1.15198e+01
       H  1.01764e+01  8.85076e+00  1.10388e+01
       H  1.22134e+01  9.77340e+00  1.08594e+01
       H  1.36405e+01  9.51980e+00  1.03080e+01
       H  8.36643e+00  8.76149e+00  9.56198e+00
       H  8.96367e+00  7.41550e+00  9.06625e+00
       H  6.40000e+00  9.95009e+00  1.07541e+01
       H  7.81957e+00  1.07631e+01  1.01263e+01
       H  9.90852e+00  1.13924e+01  9.55628e+00
       H  9.40590e+00  1.26631e+01  1.03164e+01
       O  1.07862e+01  1.05053e+01  8.42595e+00
       O  1.06297e+01  9.43712e+00  1.16657e+01
       O  1.28737e+01  1.00891e+01  1.02074e+01
       O  9.20929e+00  8.28133e+00  9.40365e+00
       O  7.20149e+00  1.00225e+01  9.95757e+00
       O  9.34087e+00  1.17040e+01  1.03114e+01
18
# CELL(abcABC):   37.79452    37.79452    37.79452    90.00000    90.00000    90.00000  Step:           1  Bead:       0 positions{angstrom}  cell{atomic_unit}
       H  1.03366e+01  9.64250e+00  8.49023e+00
       H  1.16546e+01  1.03496e+01  8.85575e+00
       H  1.01900e+01  1.02940e+01  1.15195e+01
       H  1.01745e+01  8.84757e+00  1.10360e+01
       H  1.22094e+01  9.77217e+00  1.08627e+01
       H  1.36440e+01  9.51761e+00  1.03079e+01
       H  8.36215e+00  8.76433e+00  9.56336e+00
       H  8.96323e+00  7.41183e+00  9.06486e+00
       H  6.42641e+00  9.95473e+00  1.07311e+01
       H  7.82066e+00  1.07681e+01  1.01308e+01
       H  9.91145e+00  1.13901e+01  9.55229e+00
       H  9.40571e+00  1.26670e+01  1.03169e+01
       O  1.07845e+01  1.05095e+01  8.42355e+00
       O  1.06336e+01  9.43599e+00  1.16690e+01
       O  1.28741e+01  1.00924e+01  1.02041e+01
       O  9.21375e+00  8.28245e+00  9.40406e+00
       O  7.17429e+00  1.00132e+01  9.97588e+00
       O  9.33793e+00  1.17019e+01  1.03147e+01
18
# CELL(abcABC):   37.79452    37.79452    37.79452    90.00000    90.00000    90.00000  Step:           2  Bead:       0 positions{angstrom}  cell{atomic_unit}
       H  1.03320e+01  9.63796e+00  8.49017e+00
       H  1.16617e+01  1.03503e+01  8.85919e+00
       H  1.01886e+01  1.02998e+01  1.15200e+01
       H  1.01729e+01  8.84254e+00  1.10327e+01
       H  1.22018e+01  9.77123e+00  1.08674e+01
       H  1.36488e+01  9.51523e+00  1.03064e+01
       H  8.35564e+00  8.76889e+00  9.56669e+00
       H  8.96388e+00  7.40715e+00  9.06325e+00
       H  6.48881e+00  9.96699e+00  1.06790e+01
       H  7.80621e+00  1.07624e+01  1.01402e+01
       H  9.91684e+00  1.13842e+01  9.54466e+00
       H  9.40406e+00  1.26717e+01  1.03186e+01
       O  1.07825e+01  1.05140e+01  8.42082e+00
       O  1.06377e+01  9.43507e+00  1.16720e+01
       O  1.28751e+01  1.00954e+01  1.02005e+01
       O  9.21758e+00  8.28429e+00  9.40413e+00
       O  7.13013e+00  1.00082e+01  1.00176e+01
       O  9.33250e+00  1.16996e+01  1.03194e+01
18
# CELL(abcABC):   37.79452    37.79452    37.79452    90.00000    90.00000    90.00000  Step:           3  Bead:       0 positions{angstrom}  cell{atomic_unit}
       H  1.03329e+01  9.63940e+00  8.49010e+00
       H  1.16600e+01  1.03505e+01  8.85841e+00
       H  1.01893e+01  1.02985e+01  1.15201e+01
       H  1.01736e+01  8.84359e+00  1.10337e+01
       H  1.22032e+01  9.77179e+00  1.08660e+01
       H  1.36478e+01  9.51593e+00  1.03063e+01
       H  8.35724e+00  8.76772e+00  9.56631e+00
       H  8.96412e+00  7.40849e+00  9.06377e+00
       H  6.46549e+00  9.96519e+00  1.07026e+01
       H  7.80560e+00  1.07616e+01  1.01398e+01
       H  9.91549e+00  1.13849e+01  9.54643e+00
       H  9.40398e+00  1.26702e+01  1.03186e+01
       O  1.07833e+01  1.05124e+01  8.42186e+00
       O  1.06364e+01  9.43541e+00  1.16707e+01
       O  1.28746e+01  1.00942e+01  1.02019e+01
       O  9.21550e+00  8.28422e+00  9.40403e+00
       O  7.15452e+00  1.00108e+01  9.99438e+00
       O  9.33387e+00  1.17000e+01  1.03175e+01
18
# CELL(abcABC):   37.79452    37.79452    37.79452    90.00000    90.00000    90.00000  Step:           4  Bead:       0 positions{angstrom}  cell{atomic_unit}
       H  1.03319e+01  9.63940e+00  8.48998e+00
       H  1.16609e+01  1.03512e+01  8.85891e+00
       H  1.01896e+01  1.02992e+01  1.15205e+01
       H  1.01740e+01  8.84277e+00  1.10336e+01
       H  1.22017e+01  9.77216e+00  1.08663e+01
       H  1.36484e+01  9.51589e+00  1.03055e+01
       H  8.35628e+00  8.76840e+00  9.56739e+00
       H  8.96483e+00  7.40830e+00  9.06379e+00
       H  6.47499e+00  9.96903e+00  1.06978e+01
       H  7.79966e+00  1.07595e+01  1.01437e+01
       H  9.91603e+00  1.13832e+01  9.54542e+00
       H  9.40311e+00  1.26702e+01  1.03193e+01
       O  1.07835e+01  1.05122e+01  8.42209e+00
       O  1.06364e+01  9.43553e+00  1.16703e+01
       O  1.28745e+01  1.00937e+01  1.02022e+01
       O  9.21452e+00  8.28469e+00  9.40382e+00
       O  7.15324e+00  1.00097e+01  9.99480e+00
       O  9.33341e+00  1.16997e+01  1.03171e+01
18
# CELL(abcABC):   37.79452    37.79452    37.79452    90.00000    90.00000    90.00000  Step:           5  Bead:       0 positions{angstrom}  cell{atomic_unit}
       H  1.03296e+01  9.63993e+00  8.48972e+00
       H  1.16626e+01  1.03530e+01  8.86005e+00
       H  1.01906e+01  1.03008e+01  1.15216e+01
       H  1.01751e+01  8.84090e+00  1.10336e+01
       H  1.21979e+01  9.77329e+00  1.08666e+01
       H  1.36496e+01  9.51598e+00  1.03032e+01
       H  8.35391e+00  8.76984e+00  9.57034e+00
       H  8.96683e+00  7.40825e+00  9.06404e+00
       H  6.49433e+00  9.97869e+00  1.06911e+01
       H  7.78548e+00  1.07557e+01  1.01544e+01
       H  9.91669e+00  1.13790e+01  9.54354e+00
       H  9.40071e+00  1.26695e+01  1.03214e+01
       O  1.07845e+01  1.05111e+01  8.42311e+00
       O  1.06362e+01  9.43603e+00  1.16688e+01
       O  1.28739e+01  1.00920e+01  1.02036e+01
       O  9.21129e+00  8.28612e+00  9.40329e+00
       O  7.15482e+00  1.00058e+01  9.98912e+00
       O  9.33286e+00  1.16990e+01  1.03149e+01
18
# CELL(abcABC):   37.79452    37.79452    37.79452    90.00000    90.00000    90.00000  Step:           6  Bead:       0 positions{angstrom}  cell{atomic_unit}
       H  1.03283e+01  9.64049e+00  8.48966e+00
       H  1.16634e+01  1.03541e+01  8.86084e+00
       H  1.01913e+01  1.03016e+01  1.15222e+01
       H  1.01758e+01  8.83989e+00  1.10337e+01
       H  1.21957e+01  9.77397e+00  1.08666e+01
       H  1.36500e+01  9.51608e+00  1.03017e+01
       H  8.35217e+00  8.77060e+00  9.57241e+00
       H  8.96815e+00  7.40848e+00  9.06432e+00
       H  6.50319e+00  9.98422e+00  1.06906e+01
       H  7.77840e+00  1.07552e+01  1.01611e+01
       H  9.91669e+00  1.13763e+01  9.54266e+00
       H  9.39914e+00  1.26685e+01  1.03228e+01
       O  1.07853e+01  1.05103e+01  8.42394e+00
       O  1.06362e+01  9.43643e+00  1.16679e+01
       O  1.28732e+01  1.00909e+01  1.02046e+01
       O  9.20913e+00  8.28724e+00  9.40297e+00
       O  7.15813e+00  1.00023e+01  9.98145e+00
       O  9.33272e+00  1.16982e+01  1.03131e+01
18
# CELL(abcABC):   37.79452    37.79452    37.79452    90.00000    90.00000    90.00000  Step:           7  Bead:       0 positions{angstrom}  cell{atomic_unit}
       H  1.03272e+01  9.64106e+00  8.48981e+00
       H  1.16641e+01  1.03549e+01  8.86175e+00
       H  1.01919e+01  1.03023e+01  1.15225e+01
       H  1.01766e+01  8.83922e+00  1.10336e+01
       H  1.21937e+01  9.77432e+00  1.08666e+01
       H  1.36499e+01  9.51608e+00  1.03003e+01
       H  8.35014e+00  8.77112e+00  9.57452e+00
       H  8.96929e+00  7.40892e+00  9.06468e+00
       H  6.50897e+00  9.98785e+00  1.06920e+01
       H  7.77468e+00  1.07564e+01  1.01662e+01
       H  9.91635e+00  1.13740e+01  9.54193e+00
       H  9.39777e+00  1.26672e+01  1.03239e+01
       O  1.07860e+01  1.05099e+01  8.42473e+00
       O  1.06365e+01  9.43684e+00  1.16671e+01
       O  1.28724e+01  1.00901e+01  1.02054e+01
       O  9.20739e+00  8.28855e+00  9.40279e+00
       O  7.16166e+00  9.99919e+00  9.97315e+00
       O  9.33244e+00  1.16971e+01  1.03115e+01
18
# CELL(abcABC):   37.79452    37.79452    37.79452    90.00000    90.00000    90.00000  Step:           8  Bead:       0 positions{angstrom}  cell{atomic_unit}
       H  1.03270e+01  9.64126e+00  8.49003e+00
       H  1.16642e+01  1.03549e+01  8.86221e+00
       H  1.01920e+01  1.03024e+01  1.15224e+01
       H  1.01768e+01  8.83925e+00  1.10335e+01
       H  1.21932e+01  9.77417e+00  1.08667e+01
       H  1.36495e+01  9.51599e+00  1.02999e+01
       H  8.34923e+00  8.77113e+00  9.57531e+00
       H  8.96957e+00  7.40923e+00  9.06488e+00
       H  6.50981e+00  9.98755e+00  1.06925e+01
       H  7.77549e+00  1.07573e+01  1.01664e+01
       H  9.91608e+00  1.13734e+01  9.54162e+00
       H  9.39744e+00  1.26665e+01  1.03242e+01
       O  1.07861e+01  1.05100e+01  8.42496e+00
       O  1.06368e+01  9.43695e+00  1.16671e+01
       O  1.28719e+01  1.00900e+01  1.02054e+01
       O  9.20708e+00  8.28917e+00  9.40285e+00
       O  7.16244e+00  9.99931e+00  9.97142e+00
       O  9.33208e+00  1.16964e+01  1.03112e+01
18
# CELL(abcABC):   37.79452    37.79452    37.79452    90.00000    90.00000    90.00000  Step:           9  Bead:       0 positions{angstrom}  cell{atomic_unit}
       H  1.03264e+01  9.64222e+00  8.49114e+00
       H  1.16646e+01  1.03548e+01  8.86434e+00
       H  1.01926e+01  1.03027e+01  1.15218e+01
       H  1.01777e+01  8.83960e+00  1.10331e+01
       H  1.21910e+01  9.77332e+00  1.08668e+01
       H  1.36476e+01  9.51558e+00  1.02984e+01
       H  8.34535e+00  8.77100e+00  9.57874e+00
       H  8.97079e+00  7.41083e+00  9.06583e+00
       H  6.51396e+00  9.98513e+00  1.06935e+01
       H  7.77981e+00  1.07609e+01  1.01659e+01
       H  9.91486e+00  1.13708e+01  9.54016e+00
       H  9.39604e+00  1.26632e+01  1.03252e+01
       O  1.07867e+01  1.05108e+01  8.42595e+00
       O  1.06384e+01  9.43740e+00  1.16668e+01
       O  1.28699e+01  1.00901e+01  1.02053e+01
       O  9.20564e+00  8.29200e+00  9.40326e+00
       O  7.16509e+00  1.00015e+01  9.96612e+00
       O  9.33029e+00  1.16930e+01  1.03103e+01
18
# CELL(abcABC):   37.79452    37.79452    37.79452    90.00000    90.00000    90.00000  Step:          10  Bead:       0 positions{angstrom}  cell{atomic_unit}
       H  1.03255e+01  9.64397e+00  8.49302e+00
       H  1.16652e+01  1.03545e+01  8.86789e+00
       H  1.01937e+01  1.03030e+01  1.15206e+01
       H  1.01795e+01  8.84031e+00  1.10325e+01
       H  1.21875e+01  9.77190e+00  1.08670e+01
       H  1.36441e+01  9.51490e+00  1.02958e+01
       H  8.33920e+00  8.77076e+00  9.58437e+00
       H  8.97287e+00  7.41372e+00  9.06751e+00
       H  6.52200e+00  9.98076e+00  1.06937e+01
       H  7.78675e+00  1.07659e+01  1.01642e+01
       H  9.91280e+00  1.13664e+01  9.53768e+00
       H  9.39370e+00  1.26576e+01  1.03269e+01
       O  1.07876e+01  1.05120e+01  8.42768e+00
       O  1.06408e+01  9.43814e+00  1.16662e+01
       O  1.28666e+01  1.00903e+01  1.02052e+01
       O  9.20289e+00  8.29673e+00  9.40411e+00
       O  7.16889e+00  1.00066e+01  9.95937e+00
       O  9.32725e+00  1.16875e+01  1.03088e+01
18
# CELL(abcABC):   37.79452    37.79452    37.79452    90.00000    90.00000    90.00000  Step:          11  Bead:       0 positions{angstrom}  cell{atomic_unit}
       H  1.03239e+01  9.64733e+00  8.49639e+00
       H  1.16658e+01  1.03542e+01  8.87425e+00
       H  1.01959e+01  1.03035e+01  1.15186e+01
       H  1.01827e+01  8.84171e+00  1.10314e+01
       H  1.21814e+01  9.76940e+00  1.08671e+01
       H  1.36376e+01  9.51372e+00  1.02910e+01
       H  8.32876e+00  8.77048e+00  9.59413e+00
       H  8.97666e+00  7.41918e+00  9.07064e+00
       H  6.53784e+00  9.97289e+00  1.06924e+01
       H  7.79854e+00  1.07735e+01  1.01604e+01
       H  9.90909e+00  1.13584e+01  9.53332e+00
       H  9.38944e+00  1.26473e+01  1.03300e+01
       O  1.07893e+01  1.05139e+01  8.43092e+00
       O  1.06449e+01  9.43944e+00  1.16650e+01
       O  1.28604e+01  1.00903e+01  1.02052e+01
       O  9.19744e+00  8.30508e+00  9.40598e+00
       O  7.17510e+00  1.00170e+01  9.94958e+00
       O  9.32195e+00  1.16775e+01  1.03062e+01
18
# CELL(abcABC):   37.79452    37.79452    37.79452    90.00000    90.00000    90.00000  Step:          12  Bead:       0 positions{angstrom}  cell{atomic_unit}
       H  1.03228e+01  9.65020e+00  8.49905e+00
       H  1.16660e+01  1.03540e+01  8.87932e+00
       H  1.01978e+01  1.03037e+01  1.15170e+01
       H  1.01853e+01  8.84288e+00  1.10306e+01
       H  1.21767e+01  9.76748e+00  1.08670e+01
       H  1.36322e+01  9.51277e+00  1.02871e+01
       H  8.32124e+00  8.77064e+00  9.60131e+00
       H  8.97968e+00  7.42383e+00  9.07326e+00
       H  6.55180e+00  9.96687e+00  1.06898e+01
       H  7.80719e+00  1.07780e+01  1.01566e+01
       H  9.90616e+00  1.13522e+01  9.52999e+00
       H  9.38600e+00  1.26390e+01  1.03323e+01
       O  1.07905e+01  1.05153e+01  8.43360e+00
       O  1.06478e+01  9.44040e+00  1.16640e+01
       O  1.28555e+01  1.00902e+01  1.02053e+01
       O  9.19258e+00  8.31146e+00  9.40804e+00
       O  7.17943e+00  1.00262e+01  9.94401e+00
       O  9.31809e+00  1.16697e+01  1.03042e+01
18
# CELL(abcABC):   37.79452    37.79452    37.79452    90.00000    90.00000    90.00000  Step:          13  Bead:       0 positions{angstrom}  cell{atomic_unit}
       H  1.03223e+01  9.65165e+00  8.50019e+00
       H  1.16656e+01  1.03540e+01  8.88162e+00
       H  1.01988e+01  1.03038e+01  1.15163e+01
       H  1.01866e+01  8.84339e+00  1.10302e+01
       H  1.21748e+01  9.76673e+00  1.08668e+01
       H  1.36295e+01  9.51226e+00  1.02852e+01
       H  8.31884e+00  8.77145e+00  9.60358e+00
       H  8.98092e+00  7.42620e+00  9.07456e+00
       H  6.55926e+00  9.96466e+00  1.06876e+01
       H  7.81028e+00  1.07784e+01  1.01541e+01
       H  9.90496e+00  1.13494e+01  9.52874e+00
       H  9.38437e+00  1.26353e+01  1.03333e+01
       O  1.07910e+01  1.05158e+01  8.43488e+00
       O  1.06485e+01  9.44068e+00  1.16635e+01
       O  1.28533e+01  1.00901e+01  1.02055e+01
       O  9.19005e+00  8.31390e+00  9.40986e+00
       O  7.18074e+00  1.00308e+01  9.94331e+00
       O  9.31694e+00  1.16664e+01  1.03033e+01
18
# CELL(abcABC):   37.79452    37.79452    37.79452    90.00000    90.00000    90.00000  Step:          14  Bead:       0 positions{angstrom}  cell{atomic_unit}
       H  1.03222e+01  9.65193e+00  8.50033e+00
       H  1.16652e+01  1.03541e+01  8.88208e+00
       H  1.01992e+01  1.03038e+01  1.15162e+01
       H  1.01868e+01  8.84339e+00  1.10300e+01
       H  1.21746e+01  9.76667e+00  1.08667e+01
       H  1.36289e+01  9.51203e+00  1.02848e+01
       H  8.31911e+00  8.77242e+00  9.60305e+00
       H  8.98092e+00  7.42670e+00  9.07485e+00
       H  6.56090e+00  9.96475e+00  1.06873e+01
       H  7.81042e+00  1.07775e+01  1.01533e+01
       H  9.90495e+00  1.13491e+01  9.52871e+00
       H  9.38405e+00  1.26347e+01  1.03333e+01
       O  1.07909e+01  1.05158e+01  8.43508e+00
       O  1.06482e+01  9.44056e+00  1.16635e+01
       O  1.28529e+01  1.00901e+01  1.02055e+01
       O  9.18969e+00  8.31395e+00  9.41104e+00
       O  7.18066e+00  1.00315e+01  9.94355e+00
       O  9.31728e+00  1.16659e+01  1.03033e+01
18
# CELL(abcABC):   37.79452    37.79452    37.79452    90.00000    90.00000    90.00000  Step:          15  Bead:       0 positions{angstrom}  cell{atomic_unit}
       H  1.03219e+01  9.65247e+00  8.50067e+00
       H  1.16642e+01  1.03544e+01  8.88326e+00
       H  1.01999e+01  1.03039e+01  1.15158e+01
       H  1.01871e+01  8.84332e+00  1.10296e+01
       H  1.21741e+01  9.76651e+00  1.08665e+01
       H  1.36274e+01  9.51137e+00  1.02836e+01
       H  8.31963e+00  8.77503e+00  9.60161e+00
       H  8.98076e+00  7.42782e+00  9.07553e+00
       H  6.56413e+00  9.96494e+00  1.06876e+01
       H  7.81125e+00  1.07758e+01  1.01513e+01
       H  9.90508e+00  1.13483e+01  9.52863e+00
       H  9.38329e+00  1.26336e+01  1.03334e+01
       O  1.07905e+01  1.05160e+01  8.43546e+00
       O  1.06476e+01  9.44021e+00  1.16638e+01
       O  1.28520e+01  1.00901e+01  1.02054e+01
       O  9.18928e+00  8.31400e+00  9.41405e+00
       O  7.18054e+00  1.00324e+01  9.94301e+00
       O  9.31815e+00  1.16648e+01  1.03034e+01
18
# CELL(abcABC):   37.79452    37.79452    37.79452    90.00000    90.00000    90.00000  Step:          16  Bead:       0 positions{angstrom}  cell{atomic_unit}
       H  1.03210e+01  9.65370e+00  8.50160e+00
       H  1.16619e+01  1.03550e+01  8.88644e+00
       H  1.02018e+01  1.03042e+01  1.15148e+01
       H  1.01879e+01  8.84318e+00  1.10282e+01
       H  1.21725e+01  9.76596e+00  1.08662e+01
       H  1.36235e+01  9.50962e+00  1.02806e+01
       H  8.32025e+00  8.78146e+00  9.59845e+00
       H  8.98029e+00  7.43066e+00  9.07728e+00
       H  6.57176e+00  9.96494e+00  1.06894e+01
       H  7.81451e+00  1.07729e+01  1.01465e+01
       H  9.90546e+00  1.13461e+01  9.52814e+00
       H  9.38134e+00  1.26305e+01  1.03336e+01
       O  1.07897e+01  1.05168e+01  8.43634e+00
       O  1.06464e+01  9.43936e+00  1.16644e+01
       O  1.28495e+01  1.00902e+01  1.02051e+01
       O  9.18868e+00  8.31445e+00  9.42144e+00
       O  7.18040e+00  1.00341e+01  9.94015e+00
       O  9.31992e+00  1.16617e+01  1.03040e+01
18
# CELL(abcABC):   37.79452    37.79452    37.79452    90.00000    90.00000    90.00000  Step:          17  Bead:       0 positions{angstrom}  cell{atomic_unit}
       H  1.03192e+01  9.65574e+00  8.50339e+00
       H  1.16582e+01  1.03560e+01  8.89233e+00
       H  1.02050e+01  1.03048e+01  1.15128e+01
       H  1.01892e+01  8.84302e+00  1.10259e+01
       H  1.21692e+01  9.76480e+00  1.08659e+01
       H  1.36167e+01  9.50639e+00  1.02751e+01
       H  8.32046e+00  8.79243e+00  9.59362e+00
       H  8.97942e+00  7.43582e+00  9.08051e+00
       H  6.58502e+00  9.96423e+00  1.06934e+01
       H  7.82178e+00  1.07694e+01  1.01381e+01
       H  9.90622e+00  1.13420e+01  9.52688e+00
       H  9.37780e+00  1.26248e+01  1.03340e+01
       O  1.07882e+01  1.05185e+01  8.43786e+00
       O  1.06448e+01  9.43793e+00  1.16656e+01
       O  1.28451e+01  1.00906e+01  1.02044e+01
       O  9.18798e+00  8.31582e+00  9.43408e+00
       O  7.18025e+00  1.00369e+01  9.93350e+00
       O  9.32243e+00  1.16558e+01  1.03051e+01
18
# CELL(abcABC):   37.79452    37.79452    37.79452    90.00000    90.00000    90.00000  Step:          18  Bead:       0 positions{angstrom}  cell{atomic_unit}
       H  1.03174e+01  9.65727e+00  8.50503e+00
       H  1.16554e+01  1.03569e+01  8.89764e+00
       H  1.02076e+01  1.03051e+01  1.15110e+01
       H  1.01900e+01  8.84298e+00  1.10239e+01
       H  1.21659e+01  9.76366e+00  1.08660e+01
       H  1.36107e+01  9.50344e+00  1.02700e+01
       H  8.32011e+00  8.80141e+00  9.59014e+00
       H  8.97852e+00  7.44051e+00  9.08350e+00
       H  6.59648e+00  9.96301e+00  1.06975e+01
       H  7.82930e+00  1.07678e+01  1.01309e+01
       H  9.90711e+00  1.13384e+01  9.52547e+00
       H  9.37465e+00  1.26197e+01  1.03345e+01
       O  1.07868e+01  1.05201e+01  8.43911e+00
       O  1.06440e+01  9.43673e+00  1.16667e+01
       O  1.28410e+01  1.00910e+01  1.02037e+01
       O  9.18770e+00  8.31763e+00  9.44437e+00
       O  7.18005e+00  1.00390e+01  9.92649e+00
       O  9.32403e+00  1.16503e+01  1.03065e+01
18
# CELL(abcABC):   37.79452    37.79452    37.79452    90.00000    90.00000    90.00000  Step:          19  Bead:       0 positions{angstrom}  cell{atomic_unit}
       H  1.03168e+01  9.65734e+00  8.50542e+00
       H  1.16549e+01  1.03572e+01  8.89903e+00
       H  1.02081e+01  1.03051e+01  1.15106e+01
       H  1.01898e+01  8.84305e+00  1.10236e+01
       H  1.21647e+01  9.76335e+00  1.08664e+01
       H  1.36091e+01  9.50250e+00  1.02684e+01
       H  8.32001e+00  8.80328e+00  9.58958e+00
       H  8.97791e+00  7.44187e+00  9.08447e+00
       H  6.59933e+00  9.96239e+00  1.06992e+01
       H  7.83186e+00  1.07682e+01  1.01291e+01
       H  9.90778e+00  1.13376e+01  9.52502e+00
       H  9.37383e+00  1.26185e+01  1.03345e+01
       O  1.07863e+01  1.05205e+01  8.43931e+00
       O  1.06443e+01  9.43639e+00  1.16670e+01
       O  1.28399e+01  1.00911e+01  1.02035e+01
       O  9.18811e+00  8.31851e+00  9.44628e+00
       O  7.17974e+00  1.00391e+01  9.92398e+00
       O  9.32415e+00  1.16488e+01  1.03072e+01
18
# CELL(abcABC):   37.79452    37.79452    37.79452    90.00000    90.00000    90.00000  Step:          20  Bead:       0 positions{angstrom}  cell{atomic_unit}
       H  1.03165e+01  9.65695e+00  8.50537e+00
       H  1.16551e+01  1.03575e+01  8.89904e+00
       H  1.02079e+01  1.03048e+01  1.15107e+01
       H  1.01892e+01  8.84316e+00  1.10240e+01
       H  1.21642e+01  9.76337e+00  1.08668e+01
       H  1.36091e+01  9.50217e+00  1.02678e+01
       H  8.32011e+00  8.80284e+00  9.59000e+00
       H  8.97729e+00  7.44216e+00  9.08483e+00
       H  6.59962e+00  9.96205e+00  1.07000e+01
       H  7.83239e+00  1.07691e+01  1.01289e+01
       H  9.90844e+00  1.13378e+01  9.52506e+00
       H  9.37372e+00  1.26187e+01  1.03344e+01
       O  1.07861e+01  1.05205e+01  8.43921e+00
       O  1.06450e+01  9.43632e+00  1.16669e+01
       O  1.28398e+01  1.00911e+01  1.02036e+01
       O  9.18886e+00  8.31914e+00  9.44522e+00
       O  7.17951e+00  1.00387e+01  9.92325e+00
       O  9.32395e+00  1.16487e+01  1.03076e+01
18
# CELL(abcABC):   37.79452    37.79452    37.79452    90.00000    90.00000    90.00000  Step:          21  Bead:       0 positions{angstrom}  cell{atomic_unit}
       H  1.03162e+01  9.65645e+00  8.50522e+00
       H  1.16553e+01  1.03579e+01  8.89888e+00
       H  1.02076e+01  1.03043e+01  1.15109e+01
       H  1.01883e+01  8.84328e+00  1.10246e+01
       H  1.21638e+01  9.76347e+00  1.08674e+01
       H  1.36089e+01  9.50172e+00  1.02669e+01
       H  8.32059e+00  8.80233e+00  9.59044e+00
       H  8.97633e+00  7.44249e+00  9.08535e+00
       H  6.60018e+00  9.96175e+00  1.07008e+01
       H  7.83248e+00  1.07697e+01  1.01283e+01
       H  9.90936e+00  1.13382e+01  9.52541e+00
       H  9.37356e+00  1.26189e+01  1.03343e+01
       O  1.07858e+01  1.05202e+01  8.43912e+00
       O  1.06457e+01  9.43619e+00  1.16668e+01
       O  1.28396e+01  1.00908e+01  1.02038e+01
       O  9.18991e+00  8.31992e+00  9.44360e+00
       O  7.17928e+00  1.00384e+01  9.92286e+00
       O  9.32397e+00  1.16488e+01  1.03081e+01
18
# CELL(abcABC):   37.79452    37.79452    37.79452    90.00000    90.00000    90.00000  Step:          22  Bead:       0 positions{angstrom}  cell{atomic_unit}
       H  1.03154e+01  9.65568e+00  8.50511e+00
       H  1.16549e+01  1.03590e+01  8.89912e+00
       H  1.02074e+01  1.03032e+01  1.15112e+01
       H  1.01864e+01  8.84346e+00  1.10258e+01
       H  1.21625e+01  9.76358e+00  1.08684e+01
       H  1.36076e+01  9.50030e+00  1.02641e+01
       H  8.32203e+00  8.80270e+00  9.59081e+00
       H  8.97415e+00  7.44379e+00  9.08694e+00
       H  6.60337e+00  9.96111e+00  1.07027e+01
       H  7.83304e+00  1.07700e+01  1.01260e+01
       H  9.91141e+00  1.13388e+01  9.52633e+00
       H  9.37272e+00  1.26188e+01  1.03340e+01
       O  1.07851e+01  1.05197e+01  8.43919e+00
       O  1.06469e+01  9.43574e+00  1.16664e+01
       O  1.28385e+01  1.00903e+01  1.02042e+01
       O  9.19188e+00  8.32178e+00  9.44140e+00
       O  7.17888e+00  1.00385e+01  9.92179e+00
       O  9.32464e+00  1.16484e+01  1.03090e+01
18
# CELL(abcABC):   37.79452    37.79452    37.79452    90.00000    90.00000    90.00000  Step:          23  Bead:       0 positions{angstrom}  cell{atomic_unit}
       H  1.03143e+01  9.65501e+00  8.50521e+00
       H  1.16537e+01  1.03604e+01  8.90004e+00
       H  1.02077e+01  1.03020e+01  1.15116e+01
       H  1.01841e+01  8.84348e+00  1.10273e+01
       H  1.21606e+01  9.76354e+00  1.08697e+01
       H  1.36046e+01  9.49790e+00  1.02595e+01
       H  8.32445e+00  8.80499e+00  9.59061e+00
       H  8.97117e+00  7.44608e+00  9.08953e+00
       H  6.60974e+00  9.96025e+00  1.07056e+01
       H  7.83423e+00  1.07695e+01  1.01214e+01
       H  9.91422e+00  1.13390e+01  9.52772e+00
       H  9.37104e+00  1.26179e+01  1.03338e+01
       O  1.07838e+01  1.05193e+01  8.43953e+00
       O  1.06480e+01  9.43494e+00  1.16660e+01
       O  1.28365e+01  1.00897e+01  1.02048e+01
       O  9.19404e+00  8.32433e+00  9.43991e+00
       O  7.17843e+00  1.00391e+01  9.92010e+00
       O  9.32626e+00  1.16474e+01  1.03102e+01
18
# CELL(abcABC):   37.79452    37.79452    37.79452    90.00000    90.00000    90.00000  Step:          24  Bead:       0 positions{angstrom}  cell{atomic_unit}
       H  1.03133e+01  9.65472e+00  8.50551e+00
       H  1.16520e+01  1.03617e+01  8.90132e+00
       H  1.02083e+01  1.03011e+01  1.15121e+01
       H  1.01822e+01  8.84318e+00  1.10285e+01
       H  1.21588e+01  9.76324e+00  1.08707e+01
       H  1.36008e+01  9.49524e+00  1.02546e+01
       H  8.32715e+00  8.80879e+00  9.58994e+00
       H  8.96852e+00  7.44845e+00  9.09226e+00
       H  6.61729e+00  9.95945e+00  1.07086e+01
       H  7.83564e+00  1.07683e+01  1.01161e+01
       H  9.91684e+00  1.13388e+01  9.52915e+00
       H  9.36905e+00  1.26166e+01  1.03336e+01
       O  1.07824e+01  1.05191e+01  8.43998e+00
       O  1.06485e+01  9.43404e+00  1.16658e+01
       O  1.28342e+01  1.00893e+01  1.02053e+01
       O  9.19545e+00  8.32662e+00  9.43954e+00
       O  7.17810e+00  1.00402e+01  9.91843e+00
       O  9.32836e+00  1.16461e+01  1.03112e+01
18
# CELL(abcABC):   37.79452    37.79452    37.79452    90.00000    90.00000    90.00000  Step:          25  Bead:       0 positions{angstrom}  cell{atomic_unit}
       H  1.03128e+01  9.65478e+00  8.50588e+00
       H  1.16505e+01  1.03624e+01  8.90231e+00
       H  1.02089e+01  1.03008e+01  1.15126e+01
       H  1.01812e+01  8.84259e+00  1.10292e+01
       H  1.21579e+01  9.76273e+00  1.08711e+01
       H  1.35975e+01  9.49320e+00  1.02511e+01
       H  8.32912e+00  8.81251e+00  9.58938e+00
       H  8.96707e+00  7.44979e+00  9.09412e+00
       H  6.62312e+00  9.95887e+00  1.07107e+01
       H  7.83674e+00  1.07674e+01  1.01121e+01
       H  9.91847e+00  1.13383e+01  9.53012e+00
       H  9.36750e+00  1.26156e+01  1.03336e+01
       O  1.07815e+01  1.05192e+01  8.44030e+00
       O  1.06482e+01  9.43339e+00  1.16657e+01
       O  1.28325e+01  1.00892e+01  1.02054e+01
       O  9.19574e+00  8.32795e+00  9.43972e+00
       O  7.17798e+00  1.00410e+01  9.91736e+00
       O  9.33005e+00  1.16451e+01  1.03118e+01
18
# CELL(abcABC):   37.79452    37.79452    37.79452    90.00000    90.00000    90.00000  Step:          26  Bead:       0 positions{angstrom}  cell{atomic_unit}
       H  1.03127e+01  9.65498e+00  8.50634e+00
       H  1.16491e+01  1.03626e+01  8.90315e+00
       H  1.02096e+01  1.03010e+01  1.15134e+01
       H  1.01805e+01  8.84169e+00  1.10298e+01
       H  1.21572e+01  9.76195e+00  1.08712e+01
       H  1.35941e+01  9.49114e+00  1.02479e+01
       H  8.33068e+00  8.81648e+00  9.58923e+00
       H  8.96610e+00  7.45054e+00  9.09572e+00
       H  6.62868e+00  9.95813e+00  1.07127e+01
       H  7.83794e+00  1.07669e+01  1.01084e+01
       H  9.91984e+00  1.13377e+01  9.53087e+00
       H  9.36601e+00  1.26147e+01  1.03338e+01
       O  1.07807e+01  1.05196e+01  8.44051e+00
       O  1.06476e+01  9.43282e+00  1.16659e+01
       O  1.28309e+01  1.00895e+01  1.02054e+01
       O  9.19554e+00  8.32908e+00  9.43956e+00
       O  7.17807e+00  1.00418e+01  9.91634e+00
       O  9.33149e+00  1.16443e+01  1.03124e+01
18
# CELL(abcABC):   37.79452    37.79452    37.79452    90.00000    90.00000    90.00000  Step:          27  Bead:       0 positions{angstrom}  cell{atomic_unit}
       H  1.03129e+01  9.65509e+00  8.50677e+00
       H  1.16480e+01  1.03624e+01  8.90352e+00
       H  1.02100e+01  1.03013e+01  1.15148e+01
       H  1.01796e+01  8.84041e+00  1.10307e+01
       H  1.21570e+01  9.76088e+00  1.08712e+01
       H  1.35905e+01  9.48878e+00  1.02445e+01
       H  8.33227e+00  8.82060e+00  9.58965e+00
       H  8.96518e+00  7.45049e+00  9.09723e+00
       H  6.63406e+00  9.95716e+00  1.07152e+01
       H  7.83891e+00  1.07673e+01  1.01049e+01
       H  9.92135e+00  1.13372e+01  9.53171e+00
       H  9.36457e+00  1.26145e+01  1.03340e+01
       O  1.07799e+01  1.05202e+01  8.44050e+00
       O  1.06467e+01  9.43224e+00  1.16662e+01
       O  1.28295e+01  1.00900e+01  1.02052e+01
       O  9.19525e+00  8.33017e+00  9.43795e+00
       O  7.17831e+00  1.00422e+01  9.91560e+00
       O  9.33278e+00  1.16440e+01  1.03131e+01
18
# CELL(abcABC):   37.79452    37.79452    37.79452    90.00000    90.00000    90.00000  Step:          28  Bead:       0 positions{angstrom}  cell{atomic_unit}
       H  1.03133e+01  9.65500e+00  8.50695e+00
       H  1.16474e+01  1.03621e+01  8.90313e+00
       H  1.02100e+01  1.03016e+01  1.15164e+01
       H  1.01788e+01  8.83917e+00  1.10318e+01
       H  1.21571e+01  9.75983e+00  1.08711e+01
       H  1.35877e+01  9.48668e+00  1.02417e+01
       H  8.33343e+00  8.82340e+00  9.59066e+00
       H  8.96441e+00  7.44961e+00  9.09824e+00
       H  6.63766e+00  9.95617e+00  1.07175e+01
       H  7.83919e+00  1.07686e+01  1.01026e+01
       H  9.92267e+00  1.13371e+01  9.53247e+00
       H  9.36367e+00  1.26151e+01  1.03341e+01
       O  1.07794e+01  1.05207e+01  8.44022e+00
       O  1.06459e+01  9.43178e+00  1.16668e+01
       O  1.28288e+01  1.00907e+01  1.02051e+01
       O  9.19516e+00  8.33096e+00  9.43479e+00
       O  7.17872e+00  1.00421e+01  9.91542e+00
       O  9.33347e+00  1.16444e+01  1.03138e+01
18
# CELL(abcABC):   37.79452    37.79452    37.79452    90.00000    90.00000    90.00000  Step:          29  Bead:       0 positions{angstrom}  cell{atomic_unit}
       H  1.03136e+01  9.65479e+00  8.50676e+00