       N       E                     dE             d eps       ncg     rms          rms(c)
DAV:   1     0.517402100101E+03    0.51740E+03   -0.85836E+03    88   0.539E+02
DAV:   2     0.227923425525E+03   -0.28948E+03   -0.27522E+03   128   0.111E+02
DAV:   3    -0.398696976386E+02   -0.26779E+03   -0.26359E+03   120   0.105E+02
DAV:   4    -0.955770779572E+02   -0.55707E+02   -0.55592E+02    84   0.664E+01
DAV:   5    -0.967027465315E+02   -0.11257E+01   -0.11252E+01    88   0.125E+01    0.182E+01
RMM:   6    -0.875521905784E+02    0.91506E+01   -0.35733E+01    96   0.248E+01    0.713E+00
RMM:   7    -0.871759639635E+02    0.37623E+00   -0.19057E+00    96   0.465E+00    0.460E+00
RMM:   8    -0.869260970021E+02    0.24987E+00   -0.50819E-01    96   0.386E+00    0.730E-01
RMM:   9    -0.868930010252E+02    0.33096E-01   -0.17351E-01    96   0.141E+00    0.365E-01
RMM:  10    -0.868893623988E+02    0.36386E-02   -0.17509E-02    92   0.470E-01    0.184E-01
RMM:  11    -0.868904622519E+02   -0.10999E-02   -0.77561E-03    92   0.345E-01    0.958E-02
RMM:  12    -0.869045145084E+02   -0.14052E-01   -0.10256E-02    90   0.278E-01    0.826E-02
RMM:  13    -0.869116190651E+02   -0.71046E-02   -0.26490E-03    90   0.193E-01    0.349E-02
RMM:  14    -0.869167567619E+02   -0.51377E-02   -0.76052E-04    89   0.870E-02    0.442E-02
RMM:  15    -0.869196393481E+02   -0.28826E-02   -0.91607E-04    89   0.100E-01    0.192E-02
RMM:  16    -0.869213288793E+02   -0.16895E-02   -0.29911E-04    87   0.561E-02    0.848E-03
RMM:  17    -0.869217773782E+02   -0.44850E-03   -0.82986E-05    94   0.287E-02    0.103E-02
RMM:  18    -0.869220606274E+02   -0.28325E-03   -0.19764E-05    92   0.148E-02    0.328E-03
RMM:  19    -0.869222215699E+02   -0.16094E-03   -0.10469E-05    89   0.119E-02    0.394E-03
RMM:  20    -0.869222782248E+02   -0.56655E-04   -0.12211E-06    71   0.407E-03    0.245E-03
RMM:  21    -0.869223224426E+02   -0.44218E-04   -0.24981E-06    68   0.611E-03    0.102E-03
RMM:  22    -0.869223310340E+02   -0.85914E-05   -0.41729E-07    70   0.275E-03    0.386E-04
RMM:  23    -0.869223367147E+02   -0.56806E-05   -0.12820E-07    58   0.143E-03    0.482E-04
RMM:  24    -0.869223396183E+02   -0.29036E-05   -0.55669E-08    48   0.116E-03    0.204E-04
RMM:  25    -0.869223407446E+02   -0.11263E-05   -0.25742E-08    53   0.104E-03    0.125E-04
RMM:  26    -0.869223422897E+02   -0.15451E-05   -0.25472E-08    47   0.990E-04    0.182E-04
RMM:  27    -0.869223431090E+02   -0.81931E-06   -0.59302E-09    46   0.832E-04
   1 F= -.86922343E+02 E0= -.86922343E+02  d E =-.745867E-11
       N       E                     dE             d eps       ncg     rms          rms(c)
DAV:   1    -0.122830769848E+03   -0.35908E+02   -0.17595E+03    88   0.203E+02    0.454E+01
RMM:   2    -0.844387461175E+02    0.38392E+02   -0.34629E+02   106   0.699E+01    0.274E+01
RMM:   3    -0.575571337013E+02    0.26882E+02   -0.79397E+01    95   0.294E+01    0.781E+00
RMM:   4    -0.559810476998E+02    0.15761E+01   -0.99281E+00    98   0.897E+00    0.450E+00
RMM:   5    -0.557232478078E+02    0.25780E+00   -0.48332E+00    95   0.729E+00    0.263E+00
RMM:   6    -0.555525887203E+02    0.17066E+00   -0.52245E-01    95   0.263E+00    0.813E-01
RMM:   7    -0.555640249446E+02   -0.11436E-01   -0.25296E-01    96   0.159E+00    0.686E-01
RMM:   8    -0.555517050178E+02    0.12320E-01   -0.45797E-02    95   0.785E-01    0.160E-01
RMM:   9    -0.555550922882E+02   -0.33873E-02   -0.26149E-02    94   0.539E-01    0.275E-01
RMM:  10    -0.555552067070E+02   -0.11442E-03   -0.97295E-03    90   0.349E-01    0.554E-02
RMM:  11    -0.555574261355E+02   -0.22194E-02   -0.18846E-03    92   0.122E-01    0.372E-02
RMM:  12    -0.555589192337E+02   -0.14931E-02   -0.49446E-04    99   0.630E-02    0.172E-02
RMM:  13    -0.555598071324E+02   -0.88790E-03   -0.21010E-04    96   0.478E-02    0.297E-02
RMM:  14    -0.555610687860E+02   -0.12617E-02   -0.11537E-04    91   0.333E-02    0.148E-02
RMM:  15    -0.555614787012E+02   -0.40992E-03   -0.22425E-04    94   0.485E-02    0.227E-02
RMM:  16    -0.555617585425E+02   -0.27984E-03   -0.71117E-05    92   0.287E-02    0.267E-03
RMM:  17    -0.555618546947E+02   -0.96152E-04   -0.10433E-05    92   0.106E-02    0.470E-03
RMM:  18    -0.555619490913E+02   -0.94397E-04   -0.28267E-06    75   0.548E-03    0.328E-03
RMM:  19    -0.555619909250E+02   -0.41834E-04   -0.25827E-06    77   0.538E-03    0.795E-04
RMM:  20    -0.555620134086E+02   -0.22484E-04   -0.58385E-07    67   0.268E-03    0.656E-04
RMM:  21    -0.555620227297E+02   -0.93211E-05   -0.24177E-07    64   0.158E-03    0.382E-04
RMM:  22    -0.555620277279E+02   -0.49982E-05   -0.16263E-07    60   0.145E-03    0.157E-04
RMM:  23    -0.555620299929E+02   -0.22650E-05   -0.40585E-08    53   0.102E-03    0.975E-05
RMM:  24    -0.555620311781E+02   -0.11852E-05   -0.33210E-08    53   0.101E-03    0.469E-05
RMM:  25    -0.555620318367E+02   -0.65866E-06   -0.89318E-09    50   0.866E-04
   2 F= -.55562032E+02 E0= -.55562032E+02  d E =-.236269E-10
       N       E                     dE             d eps       ncg     rms          rms(c)
DAV:   1    -0.159299595988E+03   -0.10374E+03   -0.15696E+03    88   0.189E+02    0.444E+01
RMM:   2    -0.107265236291E+03    0.52034E+02   -0.13531E+02    96   0.433E+01    0.234E+01
RMM:   3    -0.889915560485E+02    0.18274E+02   -0.35374E+01    96   0.188E+01    0.724E+00
RMM:   4    -0.875245191649E+02    0.14670E+01   -0.12579E+01    96   0.101E+01    0.378E+00
RMM:   5    -0.872391081517E+02    0.28541E+00   -0.25115E+00    96   0.523E+00    0.147E+00
RMM:   6    -0.872046408825E+02    0.34467E-01   -0.10143E-01    96   0.112E+00    0.709E-01
RMM:   7    -0.872013733078E+02    0.32676E-02   -0.12771E-01    96   0.107E+00    0.383E-01
RMM:   8    -0.872075414881E+02   -0.61682E-02   -0.56411E-02    96   0.781E-01    0.323E-01
RMM:   9    -0.872195558723E+02   -0.12014E-01   -0.10387E-02    94   0.304E-01    0.317E-01
RMM:  10    -0.872231852049E+02   -0.36293E-02   -0.28861E-02    96   0.508E-01    0.135E-01
RMM:  11    -0.872298433800E+02   -0.66582E-02   -0.17642E-03    91   0.133E-01    0.969E-02
RMM:  12    -0.872320947016E+02   -0.22513E-02   -0.20426E-03    99   0.141E-01    0.238E-02
RMM:  13    -0.872345984622E+02   -0.25038E-02   -0.22384E-04    90   0.503E-02    0.109E-02
RMM:  14    -0.872361947130E+02   -0.15963E-02   -0.18185E-04    81   0.358E-02    0.595E-03
RMM:  15    -0.872368038568E+02   -0.60914E-03   -0.83618E-05    87   0.261E-02    0.154E-02
RMM:  16    -0.872370713346E+02   -0.26748E-03   -0.53876E-05    89   0.228E-02    0.387E-03
RMM:  17    -0.872371827428E+02   -0.11141E-03   -0.52251E-06    83   0.662E-03    0.396E-03
RMM:  18    -0.872372486603E+02   -0.65918E-04   -0.21623E-06    69   0.465E-03    0.180E-03
RMM:  19    -0.872372642906E+02   -0.15630E-04   -0.91710E-07    67   0.329E-03    0.410E-04
RMM:  20    -0.872372771942E+02   -0.12904E-04   -0.39593E-07    58   0.228E-03    0.400E-04
RMM:  21    -0.872372793919E+02   -0.21977E-05   -0.11318E-07    59   0.128E-03    0.514E-04
RMM:  22    -0.872372825469E+02   -0.31550E-05   -0.70561E-08    48   0.122E-03    0.143E-04
RMM:  23    -0.872372832899E+02   -0.74302E-06   -0.14011E-08    51   0.935E-04
   3 F= -.87237283E+02 E0= -.87237283E+02  d E =-.202210E-11
       N       E                     dE             d eps       ncg     rms          rms(c)
DAV:   1    -0.902886220715E+02   -0.30513E+01   -0.67385E+01    76   0.400E+01    0.830E+00
RMM:   2    -0.882002645097E+02    0.20884E+01   -0.53799E+00    93   0.896E+00    0.495E+00
RMM:   3    -0.873136868877E+02    0.88658E+00   -0.45315E+00    96   0.658E+00    0.120E+00
RMM:   4    -0.872834974863E+02    0.30189E-01   -0.10572E-01    96   0.121E+00    0.490E-01
RMM:   5    -0.872881680686E+02   -0.46706E-02   -0.44841E-02    92   0.728E-01    0.309E-01
RMM:   6    -0.872869539111E+02    0.12142E-02   -0.18950E-02    93   0.458E-01    0.151E-01
RMM:   7    -0.872888730679E+02   -0.19192E-02   -0.26343E-03    86   0.188E-01    0.502E-02
RMM:   8    -0.872905464370E+02   -0.16734E-02   -0.27342E-03    86   0.182E-01    0.103E-01
RMM:   9    -0.872918885711E+02   -0.13421E-02   -0.27128E-03    83   0.164E-01    0.243E-02
RMM:  10    -0.872924740850E+02   -0.58551E-03   -0.45081E-04    99   0.581E-02    0.475E-02
RMM:  11    -0.872929182156E+02   -0.44413E-03   -0.54984E-04    87   0.755E-02    0.134E-02
RMM:  12    -0.872931211221E+02   -0.20291E-03   -0.32374E-05    88   0.204E-02    0.380E-03
RMM:  13    -0.872933660298E+02   -0.24491E-03   -0.20852E-05    81   0.131E-02    0.404E-03
RMM:  14    -0.872934145276E+02   -0.48498E-04   -0.98572E-06    86   0.106E-02    0.470E-03
RMM:  15    -0.872934860005E+02   -0.71473E-04   -0.44357E-06    76   0.686E-03    0.125E-03
RMM:  16    -0.872935086038E+02   -0.22603E-04   -0.10548E-06    71   0.385E-03    0.798E-04
RMM:  17    -0.872935255298E+02   -0.16926E-04   -0.57267E-07    66   0.259E-03    0.109E-03
RMM:  18    -0.872935339805E+02   -0.84507E-05   -0.25070E-07    62   0.175E-03    0.491E-04
RMM:  19    -0.872935385621E+02   -0.45816E-05   -0.23538E-07    66   0.185E-03    0.286E-04
RMM:  20    -0.872935400938E+02   -0.15317E-05   -0.34454E-08    50   0.860E-04    0.142E-04
RMM:  21    -0.872935416558E+02   -0.15620E-05   -0.24792E-08    43   0.975E-04    0.660E-05
RMM:  22    -0.872935420959E+02   -0.44006E-06    0.00000E+00    47   0.770E-04
   4 F= -.87293542E+02 E0= -.87293542E+02  d E =-.129796E-10
       N       E                     dE             d eps       ncg     rms          rms(c)
DAV:   1    -0.885467987443E+02   -0.12533E+01   -0.25343E+01    88   0.240E+01    0.490E+00
RMM:   2    -0.877807264819E+02    0.76607E+00   -0.19318E+00    88   0.540E+00    0.308E+00
RMM:   3    -0.874235359778E+02    0.35719E+00   -0.17347E+00    94   0.412E+00    0.591E-01
RMM:   4    -0.874173866175E+02    0.61494E-02   -0.25218E-02    95   0.606E-01    0.289E-01
RMM:   5    -0.874195013777E+02   -0.21148E-02   -0.11057E-02    93   0.366E-01    0.186E-01
RMM:   6    -0.874186777713E+02    0.82361E-03   -0.66706E-03    96   0.270E-01    0.782E-02
RMM:   7    -0.874197370028E+02   -0.10592E-02   -0.98285E-04    94   0.116E-01    0.418E-02
RMM:   8    -0.874207556659E+02   -0.10187E-02   -0.57413E-04    89   0.788E-02    0.524E-02
RMM:   9    -0.874217378041E+02   -0.98214E-03   -0.94549E-04    85   0.952E-02    0.199E-02
RMM:  10    -0.874222923061E+02   -0.55450E-03   -0.12749E-04    95   0.313E-02    0.263E-02
RMM:  11    -0.874225627099E+02   -0.27040E-03   -0.14847E-04    91   0.400E-02    0.691E-03
RMM:  12    -0.874227537694E+02   -0.19106E-03   -0.15041E-05    85   0.119E-02    0.547E-03
RMM:  13    -0.874229089676E+02   -0.15520E-03   -0.10181E-05    80   0.868E-03    0.334E-03
RMM:  14    -0.874229532645E+02   -0.44297E-04   -0.20398E-06    74   0.451E-03    0.151E-03
RMM:  15    -0.874229993714E+02   -0.46107E-04   -0.31504E-06    73   0.570E-03    0.162E-03
RMM:  16    -0.874230154692E+02   -0.16098E-04   -0.57331E-07    66   0.259E-03    0.102E-03
RMM:  17    -0.874230214529E+02   -0.59836E-05   -0.28993E-07    65   0.181E-03    0.595E-04
RMM:  18    -0.874230263808E+02   -0.49279E-05   -0.25684E-07    59   0.180E-03    0.185E-04
RMM:  19    -0.874230273026E+02   -0.92184E-06   -0.72549E-08    58   0.104E-03
   5 F= -.87423027E+02 E0= -.87423027E+02  d E =-.408200E-11
       N       E                     dE             d eps       ncg     rms          rms(c)
DAV:   1    -0.874526013598E+02   -0.29575E-01   -0.34608E-01    88   0.300E+00    0.580E-01
RMM:   2    -0.874430251037E+02    0.95763E-02   -0.28926E-02    86   0.740E-01    0.350E-01
RMM:   3    -0.874393716430E+02    0.36535E-02   -0.24935E-02    92   0.497E-01    0.127E-01
RMM:   4    -0.874390231501E+02    0.34849E-03   -0.73728E-04    96   0.104E-01    0.580E-02
RMM:   5    -0.874390874699E+02   -0.64320E-04   -0.99224E-04    92   0.108E-01    0.414E-02
RMM:   6    -0.874390588892E+02    0.28581E-04   -0.41483E-04    96   0.698E-02    0.203E-02
RMM:   7    -0.874390863783E+02   -0.27489E-04   -0.31243E-05    78   0.215E-02    0.563E-03
RMM:   8    -0.874391072567E+02   -0.20878E-04   -0.27678E-05    81   0.181E-02    0.840E-03
RMM:   9    -0.874391515412E+02   -0.44285E-04   -0.13705E-05    72   0.111E-02    0.149E-03
RMM:  10    -0.874391638878E+02   -0.12347E-04   -0.34891E-06    78   0.553E-03    0.215E-03
RMM:  11    -0.874391835914E+02   -0.19704E-04   -0.24816E-06    65   0.464E-03    0.781E-04
RMM:  12    -0.874391886133E+02   -0.50219E-05   -0.45560E-07    63   0.212E-03    0.500E-04
RMM:  13    -0.874391948582E+02   -0.62450E-05   -0.48290E-07    65   0.208E-03    0.402E-04
RMM:  14    -0.874391972195E+02   -0.23613E-05   -0.23285E-07    63   0.155E-03    0.238E-04
RMM:  15    -0.874391998163E+02   -0.25967E-05   -0.16094E-07    54   0.127E-03    0.193E-04
RMM:  16    -0.874392009814E+02   -0.11652E-05   -0.58418E-08    55   0.108E-03    0.744E-05
RMM:  17    -0.874392019968E+02   -0.10154E-05   -0.13663E-08    43   0.929E-04    0.330E-05
RMM:  18    -0.874392024515E+02   -0.45468E-06   -0.99692E-09    50   0.928E-04
   6 F= -.87439202E+02 E0= -.87439202E+02  d E =-.833852E-11
       N       E                     dE             d eps       ncg     rms          rms(c)
DAV:   1    -0.874724164341E+02   -0.33214E-01   -0.51717E-01    80   0.403E+00    0.677E-01
RMM:   2    -0.874577073130E+02    0.14709E-01   -0.33283E-02    86   0.885E-01    0.412E-01
RMM:   3    -0.874524212776E+02    0.52860E-02   -0.39603E-02    93   0.662E-01    0.183E-01
RMM:   4    -0.874517967906E+02    0.62449E-03   -0.12124E-03    96   0.141E-01    0.911E-02
RMM:   5    -0.874519619678E+02   -0.16518E-03   -0.29359E-03    91   0.188E-01    0.656E-02
RMM:   6    -0.874518575393E+02    0.10443E-03   -0.11189E-03    96   0.115E-01    0.308E-02
RMM:   7    -0.874519789777E+02   -0.12144E-03   -0.75511E-05    83   0.350E-02    0.998E-03
RMM:   8    -0.874520725610E+02   -0.93583E-04   -0.12102E-04    87   0.369E-02    0.190E-02
RMM:   9    -0.874521894908E+02   -0.11693E-03   -0.39820E-05    77   0.201E-02    0.585E-03
RMM:  10    -0.874522487507E+02   -0.59260E-04   -0.21542E-05    87   0.139E-02    0.277E-03
RMM:  11    -0.874522929056E+02   -0.44155E-04   -0.37753E-06    73   0.552E-03    0.197E-03
RMM:  12    -0.874523263784E+02   -0.33473E-04   -0.32744E-06    71   0.491E-03    0.554E-04
RMM:  13    -0.874523407581E+02   -0.14380E-04   -0.85793E-07    67   0.274E-03    0.686E-04
RMM:  14    -0.874523478128E+02   -0.70547E-05   -0.52645E-07    63   0.221E-03    0.312E-04
RMM:  15    -0.874523512469E+02   -0.34341E-05   -0.25425E-07    68   0.175E-03    0.472E-04
RMM:  16    -0.874523531783E+02   -0.19314E-05   -0.74360E-08    56   0.103E-03    0.426E-04
RMM:  17    -0.874523552568E+02   -0.20785E-05   -0.91153E-08    53   0.127E-03    0.133E-04
RMM:  18    -0.874523559374E+02   -0.68067E-06   -0.83254E-09    48   0.815E-04
   7 F= -.87452356E+02 E0= -.87452356E+02  d E =-.833026E-11
       N       E                     dE             d eps       ncg     rms          rms(c)
DAV:   1    -0.875383961543E+02   -0.86041E-01   -0.16578E+00    80   0.675E+00    0.124E+00
RMM:   2    -0.874839539004E+02    0.54442E-01   -0.10579E-01    85   0.151E+00    0.760E-01
RMM:   3    -0.874605645862E+02    0.23389E-01   -0.11782E-01    94   0.113E+00    0.199E-01
RMM:   4    -0.874600532744E+02    0.51131E-03   -0.24596E-03    96   0.201E-01    0.825E-02
RMM:   5    -0.874604353876E+02   -0.38211E-03   -0.17792E-03    92   0.148E-01    0.584E-02
RMM:   6    -0.874604733707E+02   -0.37983E-04   -0.13297E-03    93   0.121E-01    0.452E-02
RMM:   7    -0.874607391771E+02   -0.26581E-03   -0.24805E-04    84   0.600E-02    0.100E-02
RMM:   8    -0.874610973028E+02   -0.35813E-03   -0.22693E-04    81   0.505E-02    0.326E-02
RMM:   9    -0.874612942932E+02   -0.19699E-03   -0.15834E-04    85   0.415E-02    0.475E-03
RMM:  10    -0.874613952299E+02   -0.10094E-03   -0.33841E-05    92   0.176E-02    0.601E-03
RMM:  11    -0.874614814358E+02   -0.86206E-04   -0.71712E-06    81   0.828E-03    0.163E-03
RMM:  12    -0.874615412333E+02   -0.59797E-04   -0.33045E-06    71   0.485E-03    0.125E-03
RMM:  13    -0.874615877924E+02   -0.46559E-04   -0.31101E-06    71   0.468E-03    0.703E-04
RMM:  14    -0.874615973333E+02   -0.95408E-05   -0.48764E-07    68   0.223E-03    0.427E-04
RMM:  15    -0.874616073752E+02   -0.10042E-04   -0.32457E-07    65   0.196E-03    0.558E-04
RMM:  16    -0.874616119993E+02   -0.46241E-05   -0.13352E-07    58   0.131E-03    0.217E-04
RMM:  17    -0.874616155132E+02   -0.35139E-05   -0.13863E-07    57   0.145E-03    0.263E-04
RMM:  18    -0.874616162364E+02   -0.72314E-06   -0.14551E-08    51   0.776E-04
   8 F= -.87461616E+02 E0= -.87461616E+02  d E =-.115925E-10
       N       E                     dE             d eps       ncg     rms          rms(c)
DAV:   1    -0.876182955548E+02   -0.15668E+00   -0.30498E+00    80   0.935E+00    0.167E+00
RMM:   2    -0.875106380226E+02    0.10766E+00   -0.22057E-01    85   0.225E+00    0.103E+00
RMM:   3    -0.874642743947E+02    0.46364E-01   -0.23517E-01    95   0.162E+00    0.214E-01
RMM:   4    -0.874641949989E+02    0.79396E-04   -0.35228E-03    96   0.244E-01    0.105E-01
RMM:   5    -0.874649955567E+02   -0.80056E-03   -0.14470E-03    90   0.139E-01    0.689E-02
RMM:   6    -0.874650274380E+02   -0.31881E-04   -0.13846E-03    93   0.124E-01    0.359E-02
RMM:   7    -0.874655220487E+02   -0.49461E-03   -0.17559E-04    87   0.527E-02    0.144E-02
RMM:   8    -0.874660978180E+02   -0.57577E-03   -0.17126E-04    84   0.436E-02    0.258E-02
RMM:   9    -0.874663594500E+02   -0.26163E-03   -0.18049E-04    90   0.429E-02    0.529E-03
RMM:  10    -0.874665421033E+02   -0.18265E-03   -0.36274E-05    90   0.172E-02    0.110E-02
RMM:  11    -0.874666499315E+02   -0.10783E-03   -0.25393E-05    88   0.168E-02    0.206E-03
RMM:  12    -0.874667136824E+02   -0.63751E-04   -0.24862E-06    73   0.486E-03    0.152E-03
RMM:  13    -0.874667747205E+02   -0.61038E-04   -0.37774E-06    71   0.508E-03    0.818E-04
RMM:  14    -0.874667943669E+02   -0.19646E-04   -0.60335E-07    66   0.238E-03    0.575E-04
RMM:  15    -0.874668089649E+02   -0.14598E-04   -0.57541E-07    60   0.237E-03    0.256E-04
RMM:  16    -0.874668149626E+02   -0.59977E-05   -0.26751E-07    57   0.160E-03    0.347E-04
RMM:  17    -0.874668171213E+02   -0.21587E-05   -0.10095E-07    56   0.116E-03    0.220E-04
RMM:  18    -0.874668195117E+02   -0.23905E-05   -0.78751E-08    52   0.126E-03    0.121E-04
RMM:  19    -0.874668200435E+02   -0.53174E-06   -0.70814E-09    49   0.888E-04
   9 F= -.87466820E+02 E0= -.87466820E+02  d E =-.164676E-10
       N       E                     dE             d eps       ncg     rms          rms(c)
DAV:   1    -0.875160520211E+02   -0.49233E-01   -0.97093E-01    80   0.528E+00    0.935E-01
RMM:   2    -0.874823598843E+02    0.33692E-01   -0.67277E-02    85   0.125E+00    0.575E-01
RMM:   3    -0.874673405689E+02    0.15019E-01   -0.72089E-02    95   0.910E-01    0.115E-01
RMM:   4    -0.874674009347E+02   -0.60366E-04   -0.99490E-04    95   0.131E-01    0.567E-02
RMM:   5    -0.874677014940E+02   -0.30056E-03   -0.39773E-04    89   0.759E-02    0.362E-02
RMM:   6    -0.874677355542E+02   -0.34060E-04   -0.36969E-04    93   0.652E-02    0.179E-02
RMM:   7    -0.874679627140E+02   -0.22716E-03   -0.45855E-05    85   0.267E-02    0.809E-03
RMM:   8    -0.874682367107E+02   -0.27400E-03   -0.54155E-05    81   0.238E-02    0.124E-02
RMM:   9    -0.874683565617E+02   -0.11985E-03   -0.52734E-05    89   0.232E-02    0.340E-03
RMM:  10    -0.874684507360E+02   -0.94174E-04   -0.12006E-05    82   0.931E-03    0.554E-03
RMM:  11    -0.874684959347E+02   -0.45199E-04   -0.78004E-06    86   0.934E-03    0.112E-03
RMM:  12    -0.874685275014E+02   -0.31567E-04   -0.12725E-06    71   0.336E-03    0.101E-03
RMM:  13    -0.874685476700E+02   -0.20169E-04   -0.90091E-07    63   0.274E-03    0.521E-04
RMM:  14    -0.874685575134E+02   -0.98434E-05   -0.42999E-07    62   0.192E-03    0.210E-04
RMM:  15    -0.874685634242E+02   -0.59107E-05   -0.27910E-07    57   0.170E-03    0.266E-04
RMM:  16    -0.874685659674E+02   -0.25432E-05   -0.90409E-08    53   0.104E-03    0.152E-04
RMM:  17    -0.874685675428E+02   -0.15754E-05   -0.33047E-08    50   0.971E-04    0.525E-05
RMM:  18    -0.874685682498E+02   -0.70693E-06   -0.64210E-09    47   0.906E-04
  10 F= -.87468568E+02 E0= -.87468568E+02  d E =-.114891E-10
       N       E                     dE             d eps       ncg     rms          rms(c)
DAV:   1    -0.875789186619E+02   -0.11035E+00   -0.21472E+00    80   0.795E+00    0.140E+00
RMM:   2    -0.875014412512E+02    0.77477E-01   -0.15528E-01    85   0.194E+00    0.846E-01
RMM:   3    -0.874686308579E+02    0.32810E-01   -0.16499E-01    95   0.139E+00    0.167E-01
RMM:   4    -0.874687616523E+02   -0.13079E-03   -0.22768E-03    95   0.195E-01    0.901E-02
RMM:   5    -0.874694083858E+02   -0.64673E-03   -0.99260E-04    90   0.123E-01    0.586E-02
RMM:   6    -0.874693892290E+02    0.19157E-04   -0.93625E-04    94   0.105E-01    0.242E-02
RMM:   7    -0.874697707995E+02   -0.38157E-03   -0.82087E-05    86   0.373E-02    0.118E-02
RMM:   8    -0.874702366309E+02   -0.46583E-03   -0.95572E-05    81   0.320E-02    0.160E-02
RMM:   9    -0.874704372436E+02   -0.20061E-03   -0.94242E-05    89   0.305E-02    0.471E-03
RMM:  10    -0.874706016507E+02   -0.16441E-03   -0.23492E-05    87   0.131E-02    0.821E-03
RMM:  11    -0.874706729488E+02   -0.71298E-04   -0.15418E-05    90   0.134E-02    0.179E-03
RMM:  12    -0.874707348310E+02   -0.61882E-04   -0.31292E-06    73   0.532E-03    0.203E-03
RMM:  13    -0.874707711445E+02   -0.36314E-04   -0.17517E-06    69   0.396E-03    0.713E-04
RMM:  14    -0.874707848870E+02   -0.13742E-04   -0.53698E-07    66   0.225E-03    0.370E-04
RMM:  15    -0.874707992410E+02   -0.14354E-04   -0.56688E-07    58   0.232E-03    0.314E-04
RMM:  16    -0.874708027761E+02   -0.35351E-05   -0.19051E-07    61   0.135E-03    0.283E-04
RMM:  17    -0.874708054621E+02   -0.26860E-05   -0.95437E-08    52   0.112E-03    0.111E-04
RMM:  18    -0.874708073444E+02   -0.18823E-05   -0.50770E-08    49   0.106E-03    0.551E-05
RMM:  19    -0.874708079709E+02   -0.62653E-06   -0.17949E-09    47   0.875E-04
  11 F= -.87470808E+02 E0= -.87470808E+02  d E =-.750176E-11
       N       E                     dE             d eps       ncg     rms          rms(c)
DAV:   1    -0.880870777106E+02   -0.61627E+00   -0.12257E+01    80   0.190E+01    0.332E+00
RMM:   2    -0.876515891323E+02    0.43549E+00   -0.87688E-01    87   0.464E+00    0.201E+00
RMM:   3    -0.874689112002E+02    0.18268E+00   -0.93087E-01    95   0.330E+00    0.410E-01
RMM:   4    -0.874685810825E+02    0.33012E-03   -0.13874E-02    96   0.474E-01    0.222E-01
RMM:   5    -0.874711758731E+02   -0.25948E-02   -0.67954E-03    91   0.323E-01    0.145E-01
RMM:   6    -0.874706713930E+02    0.50448E-03   -0.59565E-03    96   0.266E-01    0.639E-02
RMM:   7    -0.874719305498E+02   -0.12592E-02   -0.54721E-04    86   0.985E-02    0.282E-02
RMM:   8    -0.874734381473E+02   -0.15076E-02   -0.54309E-04    82   0.809E-02    0.429E-02
RMM:   9    -0.874740482493E+02   -0.61010E-03   -0.52672E-04    85   0.741E-02    0.968E-03
RMM:  10    -0.874746021843E+02   -0.55393E-03   -0.15081E-04    94   0.352E-02    0.226E-02
RMM:  11    -0.874748320432E+02   -0.22986E-03   -0.91836E-05    91   0.336E-02    0.397E-03
RMM:  12    -0.874750461073E+02   -0.21406E-03   -0.18144E-05    83   0.128E-02    0.505E-03
RMM:  13    -0.874752000249E+02   -0.15392E-03   -0.10692E-05    79   0.941E-03    0.174E-03
RMM:  14    -0.874752489302E+02   -0.48905E-04   -0.24597E-06    73   0.446E-03    0.854E-04
RMM:  15    -0.874752954484E+02   -0.46518E-04   -0.19580E-06    67   0.388E-03    0.518E-04
RMM:  16    -0.874753128982E+02   -0.17450E-04   -0.67872E-07    60   0.248E-03    0.550E-04
RMM:  17    -0.874753191516E+02   -0.62534E-05   -0.28673E-07    63   0.173E-03    0.280E-04
RMM:  18    -0.874753233686E+02   -0.42170E-05   -0.19411E-07    62   0.155E-03    0.198E-04
RMM:  19    -0.874753247782E+02   -0.14096E-05   -0.47794E-08    52   0.946E-04    0.157E-04
RMM:  20    -0.874753257073E+02   -0.92914E-06   -0.19507E-08    50   0.888E-04
  12 F= -.87475326E+02 E0= -.87475326E+02  d E =-.249186E-11
       N       E                     dE             d eps       ncg     rms          rms(c)
DAV:   1    -0.882760700480E+02   -0.80075E+00   -0.16302E+01    80   0.224E+01    0.382E+00
RMM:   2    -0.877049451640E+02    0.57112E+00   -0.11836E+00    89   0.549E+00    0.231E+00
RMM:   3    -0.874630547787E+02    0.24189E+00   -0.12240E+00    95   0.387E+00    0.464E-01
RMM:   4    -0.874623093199E+02    0.74546E-03   -0.17922E-02    96   0.549E-01    0.256E-01
RMM:   5    -0.874650312571E+02   -0.27219E-02   -0.84893E-03    94   0.374E-01    0.163E-01
RMM:   6    -0.874642218128E+02    0.80944E-03   -0.73040E-03    95   0.299E-01    0.691E-02
RMM:   7    -0.874655984201E+02   -0.13766E-02   -0.62624E-04    86   0.108E-01    0.322E-02
RMM:   8    -0.874673772462E+02   -0.17788E-02   -0.63632E-04    84   0.896E-02    0.481E-02
RMM:   9    -0.874680743592E+02   -0.69711E-03   -0.69391E-04    83   0.847E-02    0.112E-02
RMM:  10    -0.874687866270E+02   -0.71227E-03   -0.18832E-04    93   0.398E-02    0.245E-02
RMM:  11    -0.874690887632E+02   -0.30214E-03   -0.12091E-04    92   0.387E-02    0.492E-03
RMM:  12    -0.874693591822E+02   -0.27042E-03   -0.19576E-05    81   0.132E-02    0.531E-03
RMM:  13    -0.874695540670E+02   -0.19488E-03   -0.14282E-05    78   0.107E-02    0.173E-03
RMM:  14    -0.874696141482E+02   -0.60081E-04   -0.33885E-06    75   0.495E-03    0.846E-04
RMM:  15    -0.874696686070E+02   -0.54459E-04   -0.21475E-06    65   0.409E-03    0.599E-04
RMM:  16    -0.874696849524E+02   -0.16345E-04   -0.64192E-07    58   0.238E-03    0.527E-04
RMM:  17    -0.874696952669E+02   -0.10314E-04   -0.38616E-07    64   0.198E-03    0.245E-04
RMM:  18    -0.874696988544E+02   -0.35875E-05   -0.16644E-07    61   0.137E-03    0.116E-04
RMM:  19    -0.874697010096E+02   -0.21553E-05   -0.70307E-08    53   0.110E-03    0.123E-04
RMM:  20    -0.874697017742E+02   -0.76459E-06   -0.14114E-08    48   0.870E-04
  13 F= -.87469702E+02 E0= -.87469702E+02  d E =-.382412E-12
       N       E                     dE             d eps       ncg     rms          rms(c)
DAV:   1    -0.878804693399E+02   -0.41077E+00   -0.81241E+00    80   0.158E+01    0.271E+00
RMM:   2    -0.875908184034E+02    0.28965E+00   -0.58587E-01    84   0.384E+00    0.163E+00
RMM:   3    -0.874707254380E+02    0.12009E+00   -0.60396E-01    95   0.272E+00    0.316E-01
RMM:   4    -0.874720121942E+02   -0.12868E-02   -0.82415E-03    96   0.376E-01    0.175E-01
RMM:   5    -0.874746063512E+02   -0.25942E-02   -0.39124E-03    87   0.255E-01    0.111E-01
RMM:   6    -0.874742665310E+02    0.33982E-03   -0.33136E-03    95   0.203E-01    0.454E-02
RMM:   7    -0.874750895388E+02   -0.82301E-03   -0.33329E-04    86   0.758E-02    0.216E-02
RMM:   8    -0.874757553173E+02   -0.66578E-03   -0.30873E-04    82   0.616E-02    0.302E-02
RMM:   9    -0.874760235862E+02   -0.26827E-03   -0.36051E-04    83   0.604E-02    0.944E-03
RMM:  10    -0.874762069823E+02   -0.18340E-03   -0.61775E-05    92   0.235E-02    0.146E-02
RMM:  11    -0.874762699566E+02   -0.62974E-04   -0.37726E-05    95   0.220E-02    0.278E-03
RMM:  12    -0.874763548546E+02   -0.84898E-04   -0.89050E-06    82   0.923E-03    0.418E-03
RMM:  13    -0.874764024538E+02   -0.47599E-04   -0.25284E-06    71   0.526E-03    0.184E-03
RMM:  14    -0.874764333890E+02   -0.30935E-04   -0.19367E-06    68   0.451E-03    0.899E-04
RMM:  15    -0.874764576873E+02   -0.24298E-04   -0.91476E-07    64   0.306E-03    0.594E-04
RMM:  16    -0.874764662119E+02   -0.85246E-05   -0.35820E-07    59   0.183E-03    0.450E-04
RMM:  17    -0.874764721943E+02   -0.59824E-05   -0.24066E-07    66   0.171E-03    0.322E-04
RMM:  18    -0.874764741214E+02   -0.19271E-05   -0.66440E-08    57   0.109E-03    0.847E-05
RMM:  19    -0.874764758609E+02   -0.17396E-05   -0.43855E-08    56   0.112E-03    0.168E-04
RMM:  20    -0.874764764033E+02   -0.54238E-06    0.00000E+00    46   0.762E-04
  14 F= -.87476476E+02 E0= -.87476476E+02  d E =-.173653E-11
       N       E                     dE             d eps       ncg     rms          rms(c)
DAV:   1    -0.875430194446E+02   -0.66544E-01   -0.13289E+00    80   0.636E+00    0.109E+00
RMM:   2    -0.874974514121E+02    0.45568E-01   -0.93337E-02    86   0.153E+00    0.664E-01
RMM:   3    -0.874772280824E+02    0.20223E-01   -0.93619E-02    95   0.106E+00    0.126E-01
RMM:   4    -0.874772538515E+02   -0.25769E-04   -0.14933E-03    95   0.150E-01    0.713E-02
RMM:   5    -0.874775556823E+02   -0.30183E-03   -0.71055E-04    91   0.105E-01    0.441E-02
RMM:   6    -0.874775697745E+02   -0.14092E-04   -0.56843E-04    93   0.824E-02    0.213E-02
RMM:   7    -0.874777817958E+02   -0.21202E-03   -0.59891E-05    88   0.319E-02    0.897E-03
RMM:   8    -0.874780804280E+02   -0.29863E-03   -0.62387E-05    83   0.264E-02    0.142E-02
RMM:   9    -0.874782081644E+02   -0.12774E-03   -0.62586E-05    89   0.251E-02    0.358E-03
RMM:  10    -0.874783281898E+02   -0.12003E-03   -0.16296E-05    84   0.112E-02    0.715E-03
RMM:  11    -0.874783790972E+02   -0.50907E-04   -0.91632E-06    85   0.103E-02    0.124E-03
RMM:  12    -0.874784304240E+02   -0.51327E-04   -0.27722E-06    68   0.529E-03    0.159E-03
RMM:  13    -0.874784614130E+02   -0.30989E-04   -0.12671E-06    67   0.333E-03    0.874E-04
RMM:  14    -0.874784747530E+02   -0.13340E-04   -0.68129E-07    65   0.241E-03    0.377E-04
RMM:  15    -0.874784866149E+02   -0.11862E-04   -0.48723E-07    60   0.213E-03    0.182E-04
RMM:  16    -0.874784902317E+02   -0.36168E-05   -0.20295E-07    62   0.140E-03    0.255E-04
RMM:  17    -0.874784930282E+02   -0.27966E-05   -0.80888E-08    53   0.108E-03    0.119E-04
RMM:  18    -0.874784943461E+02   -0.13178E-05   -0.41872E-08    55   0.102E-03    0.365E-05
RMM:  19    -0.874784949214E+02   -0.57533E-06   -0.37229E-09    48   0.849E-04
  15 F= -.87478495E+02 E0= -.87478495E+02  d E =-.137949E-11
       N       E                     dE             d eps       ncg     rms          rms(c)
DAV:   1    -0.874972608998E+02   -0.18767E-01   -0.38910E-01    88   0.350E+00    0.586E-01
RMM:   2    -0.874850529270E+02    0.12208E-01   -0.25835E-02    83   0.813E-01    0.365E-01
RMM:   3    -0.874790341521E+02    0.60188E-02   -0.23838E-02    93   0.560E-01    0.594E-02
RMM:   4    -0.874790290182E+02    0.51339E-05   -0.39215E-04    95   0.752E-02    0.341E-02
RMM:   5    -0.874790654867E+02   -0.36468E-04   -0.14557E-04    90   0.500E-02    0.195E-02
RMM:   6    -0.874790845029E+02   -0.19016E-04   -0.12373E-04    92   0.384E-02    0.113E-02
RMM:   7    -0.874791535087E+02   -0.69006E-04   -0.19319E-05    89   0.182E-02    0.533E-03
RMM:   8    -0.874792921098E+02   -0.13860E-03   -0.19685E-05    82   0.143E-02    0.694E-03
RMM:   9    -0.874793538912E+02   -0.61781E-04   -0.20282E-05    86   0.144E-02    0.280E-03
RMM:  10    -0.874794120115E+02   -0.58120E-04   -0.36309E-06    71   0.533E-03    0.259E-03
RMM:  11    -0.874794406612E+02   -0.28650E-04   -0.32800E-06    76   0.592E-03    0.107E-03
RMM:  12    -0.874794626151E+02   -0.21954E-04   -0.90770E-07    61   0.291E-03    0.773E-04
RMM:  13    -0.874794740518E+02   -0.11437E-04   -0.62172E-07    63   0.235E-03    0.313E-04
RMM:  14    -0.874794817482E+02   -0.76964E-05   -0.41598E-07    63   0.187E-03    0.187E-04
RMM:  15    -0.874794847589E+02   -0.30107E-05   -0.14169E-07    58   0.117E-03    0.762E-05
RMM:  16    -0.874794877785E+02   -0.30197E-05   -0.91161E-08    49   0.118E-03    0.977E-05
RMM:  17    -0.874794885551E+02   -0.77654E-06   -0.23703E-08    51   0.954E-04
  16 F= -.87479489E+02 E0= -.87479489E+02  d E =-.123122E-11
       N       E                     dE             d eps       ncg     rms          rms(c)
DAV:   1    -0.875007988858E+02   -0.21311E-01   -0.44342E-01    88   0.367E+00    0.624E-01
RMM:   2    -0.874863975565E+02    0.14401E-01   -0.29884E-02    82   0.867E-01    0.386E-01
RMM:   3    -0.874796285734E+02    0.67690E-02   -0.28927E-02    94   0.603E-01    0.661E-02
RMM:   4    -0.874796471228E+02   -0.18549E-04   -0.42581E-04    95   0.807E-02    0.371E-02
RMM:   5    -0.874797239485E+02   -0.76826E-04   -0.16018E-04    89   0.519E-02    0.214E-02
RMM:   6    -0.874797407014E+02   -0.16753E-04   -0.14313E-04    92   0.412E-02    0.115E-02
RMM:   7    -0.874798241947E+02   -0.83493E-04   -0.19232E-05    90   0.183E-02    0.558E-03
RMM:   8    -0.874799536437E+02   -0.12945E-03   -0.15917E-05    85   0.127E-02    0.622E-03
RMM:   9    -0.874800194890E+02   -0.65845E-04   -0.18236E-05    86   0.132E-02    0.232E-03
RMM:  10    -0.874800776809E+02   -0.58192E-04   -0.36841E-06    73   0.536E-03    0.248E-03
RMM:  11    -0.874801054464E+02   -0.27765E-04   -0.27534E-06    75   0.546E-03    0.822E-04
RMM:  12    -0.874801253137E+02   -0.19867E-04   -0.75214E-07    60   0.275E-03    0.695E-04
RMM:  13    -0.874801372084E+02   -0.11895E-04   -0.58559E-07    59   0.224E-03    0.290E-04
RMM:  14    -0.874801447286E+02   -0.75202E-05   -0.37027E-07    62   0.175E-03    0.166E-04
RMM:  15    -0.874801472032E+02   -0.24746E-05   -0.11934E-07    58   0.109E-03    0.864E-05
RMM:  16    -0.874801506475E+02   -0.34443E-05   -0.95922E-08    47   0.117E-03    0.835E-05
RMM:  17    -0.874801512778E+02   -0.63034E-06   -0.10599E-08    50   0.880E-04
  17 F= -.87480151E+02 E0= -.87480151E+02  d E =-.116853E-11
       N       E                     dE             d eps       ncg     rms          rms(c)
DAV:   1    -0.876502949276E+02   -0.17014E+00   -0.36790E+00    80   0.105E+01    0.179E+00
RMM:   2    -0.875335359780E+02    0.11676E+00   -0.24135E-01    84   0.250E+00    0.111E+00
RMM:   3    -0.874794008146E+02    0.54135E-01   -0.23665E-01    94   0.174E+00    0.198E-01
RMM:   4    -0.874793037676E+02    0.97047E-04   -0.35534E-03    96   0.236E-01    0.107E-01
RMM:   5    -0.874796982189E+02   -0.39445E-03   -0.13766E-03    90   0.152E-01    0.608E-02
RMM:   6    -0.874797319306E+02   -0.33712E-04   -0.12406E-03    95   0.122E-01    0.371E-02
RMM:   7    -0.874801512496E+02   -0.41932E-03   -0.18391E-04    86   0.582E-02    0.165E-02
RMM:   8    -0.874808154840E+02   -0.66423E-03   -0.14706E-04    83   0.405E-02    0.207E-02
RMM:   9    -0.874811139709E+02   -0.29849E-03   -0.16981E-04    90   0.423E-02    0.767E-03
RMM:  10    -0.874813749147E+02   -0.26094E-03   -0.28890E-05    86   0.143E-02    0.814E-03
RMM:  11    -0.874814903861E+02   -0.11547E-03   -0.23012E-05    88   0.165E-02    0.340E-03
RMM:  12    -0.874815821913E+02   -0.91805E-04   -0.42334E-06    74   0.600E-03    0.177E-03
RMM:  13    -0.874816476271E+02   -0.65436E-04   -0.42186E-06    73   0.607E-03    0.140E-03
RMM:  14    -0.874816674103E+02   -0.19783E-04   -0.83256E-07    69   0.300E-03    0.444E-04
RMM:  15    -0.874816905361E+02   -0.23126E-04   -0.82764E-07    59   0.279E-03    0.371E-04
RMM:  16    -0.874816981762E+02   -0.76401E-05   -0.35633E-07    58   0.178E-03    0.142E-04
RMM:  17    -0.874817019770E+02   -0.38008E-05   -0.17036E-07    59   0.138E-03    0.918E-05
RMM:  18    -0.874817043914E+02   -0.24144E-05   -0.75372E-08    54   0.115E-03    0.588E-05
RMM:  19    -0.874817055167E+02   -0.11252E-05   -0.29072E-08    52   0.996E-04    0.294E-05
RMM:  20    -0.874817060963E+02   -0.57959E-06   -0.12931E-08    49   0.884E-04
  18 F= -.87481706E+02 E0= -.87481706E+02  d E =-.105964E-11
       N       E                     dE             d eps       ncg     rms          rms(c)
DAV:   1    -0.878229612825E+02   -0.34126E+00   -0.74589E+00    80   0.151E+01    0.256E+00
RMM:   2    -0.875874090228E+02    0.23555E+00   -0.50151E-01    86   0.357E+00    0.159E+00
RMM:   3    -0.874784318816E+02    0.10898E+00   -0.48924E-01    95   0.250E+00    0.287E-01
RMM:   4    -0.874780373312E+02    0.39455E-03   -0.72023E-03    95   0.342E-01    0.152E-01
RMM:   5    -0.874788714144E+02   -0.83408E-03   -0.29070E-03    94   0.216E-01    0.879E-02
RMM:   6    -0.874788892445E+02   -0.17830E-04   -0.24298E-03    95   0.171E-01    0.522E-02
RMM:   7    -0.874795870861E+02   -0.69784E-03   -0.35925E-04    86   0.808E-02    0.219E-02
RMM:   8    -0.874805929526E+02   -0.10059E-02   -0.26636E-04    82   0.560E-02    0.301E-02
RMM:   9    -0.874810811041E+02   -0.48815E-03   -0.32165E-04    89   0.586E-02    0.947E-03
RMM:  10    -0.874814984030E+02   -0.41730E-03   -0.58305E-05    88   0.214E-02    0.119E-02
RMM:  11    -0.874816519222E+02   -0.15352E-03   -0.38343E-05    90   0.214E-02    0.345E-03
RMM:  12    -0.874818047032E+02   -0.15278E-03   -0.86776E-06    76   0.798E-03    0.202E-03
RMM:  13    -0.874818742603E+02   -0.69557E-04   -0.41712E-06    77   0.594E-03    0.125E-03
RMM:  14    -0.874819099457E+02   -0.35685E-04   -0.12170E-06    68   0.328E-03    0.617E-04
RMM:  15    -0.874819412466E+02   -0.31301E-04   -0.96459E-07    61   0.286E-03    0.300E-04
RMM:  16    -0.874819520488E+02   -0.10802E-04   -0.52476E-07    58   0.204E-03    0.242E-04
RMM:  17    -0.874819585669E+02   -0.65181E-05   -0.26118E-07    55   0.160E-03    0.105E-04
RMM:  18    -0.874819605815E+02   -0.20146E-05   -0.10096E-07    59   0.118E-03    0.691E-05
RMM:  19    -0.874819621927E+02   -0.16112E-05   -0.34264E-08    51   0.908E-04    0.389E-05
RMM:  20    -0.874819626933E+02   -0.50061E-06   -0.11455E-09    48   0.787E-04
  19 F= -.87481963E+02 E0= -.87481963E+02  d E =-.157735E-11
       N       E                     dE             d eps       ncg     rms          rms(c)
DAV:   1    -0.875005215324E+02   -0.18559E-01   -0.35075E-01    80   0.323E+00    0.573E-01
RMM:   2    -0.874884266894E+02    0.12095E-01   -0.26851E-02    81   0.784E-01    0.350E-01
RMM:   3    -0.874831573406E+02    0.52693E-02   -0.25192E-02    95   0.542E-01    0.577E-02
RMM:   4    -0.874832401012E+02   -0.82761E-04   -0.30134E-04    94   0.715E-02    0.328E-02
RMM:   5    -0.874834200502E+02   -0.17995E-03   -0.13851E-04    85   0.446E-02    0.221E-02
RMM:   6    -0.874834115611E+02    0.84890E-05   -0.83353E-05    95   0.316E-02    0.450E-03
RMM:   7    -0.874834834011E+02   -0.71840E-04   -0.99213E-06    75   0.104E-02    0.358E-03
RMM:   8    -0.874835282827E+02   -0.44882E-04   -0.56072E-06    76   0.658E-03    0.227E-03
RMM:   9    -0.874835733879E+02   -0.45105E-04   -0.94651E-06    72   0.801E-03    0.109E-03
RMM:  10    -0.874835945742E+02   -0.21186E-04   -0.31802E-06    70   0.478E-03    0.985E-04
RMM:  11    -0.874836020651E+02   -0.74909E-05   -0.10581E-06    68   0.331E-03    0.673E-04
RMM:  12    -0.874836071255E+02   -0.50604E-05   -0.40504E-07    66   0.200E-03    0.351E-04
RMM:  13    -0.874836098774E+02   -0.27519E-05   -0.23621E-07    64   0.167E-03    0.389E-04
RMM:  14    -0.874836119435E+02   -0.20661E-05   -0.10804E-07    57   0.121E-03    0.117E-04
RMM:  15    -0.874836128811E+02   -0.93767E-06   -0.22049E-08    50   0.931E-04
  20 F= -.87483613E+02 E0= -.87483613E+02  d E =-.113602E-11
       N       E                     dE             d eps       ncg     rms          rms(c)
DAV:   1    -0.874887244828E+02   -0.51125E-02   -0.10134E-01    88   0.178E+00    0.301E-01
RMM:   2    -0.874853964803E+02    0.33280E-02   -0.70595E-03    85   0.415E-01    0.189E-01
RMM:   3    -0.874838261423E+02    0.15703E-02   -0.69086E-03    95   0.293E-01    0.316E-02
RMM:   4    -0.874838395071E+02   -0.13365E-04   -0.92531E-05    95   0.391E-02    0.167E-02
RMM:   5    -0.874838759514E+02   -0.36444E-04   -0.44438E-05    90   0.253E-02    0.106E-02
RMM:   6    -0.874838834813E+02   -0.75299E-05   -0.27263E-05    91   0.185E-02    0.471E-03
RMM:   7    -0.874839059896E+02   -0.22508E-04   -0.32290E-06    69   0.677E-03    0.183E-03
RMM:   8    -0.874839325420E+02   -0.26552E-04   -0.42975E-06    69   0.678E-03    0.323E-03
RMM:   9    -0.874839494462E+02   -0.16904E-04   -0.43777E-06    76   0.649E-03    0.755E-04
RMM:  10    -0.874839574022E+02   -0.79560E-05   -0.91772E-07    65   0.331E-03    0.139E-03
RMM:  11    -0.874839626263E+02   -0.52240E-05   -0.62894E-07    63   0.251E-03    0.416E-04
RMM:  12    -0.874839660442E+02   -0.34179E-05   -0.46334E-07    67   0.231E-03    0.492E-04
RMM:  13    -0.874839678975E+02   -0.18533E-05   -0.16685E-07    58   0.126E-03    0.248E-04
RMM:  14    -0.874839694895E+02   -0.15920E-05   -0.11146E-07    59   0.126E-03    0.155E-04
RMM:  15    -0.874839701625E+02   -0.67297E-06   -0.21375E-08    51   0.818E-04
  21 F= -.87483970E+02 E0= -.87483970E+02  d E =-.124817E-11
       N       E                     dE             d eps       ncg     rms          rms(c)
DAV:   1    -0.874877983484E+02   -0.38289E-02   -0.82946E-02    96   0.164E+00    0.269E-01
RMM:   2    -0.874853163704E+02    0.24820E-02   -0.53556E-03    84   0.369E-01    0.170E-01
RMM:   3    -0.874841064608E+02    0.12099E-02   -0.50306E-03    92   0.260E-01    0.302E-02
RMM:   4    -0.874841011773E+02    0.52835E-05   -0.76503E-05    95   0.357E-02    0.152E-02
RMM:   5    -0.874841147908E+02   -0.13613E-04   -0.42260E-05    92   0.255E-02    0.911E-03
RMM:   6    -0.874841233603E+02   -0.85695E-05   -0.27763E-05    91   0.192E-02    0.661E-03
RMM:   7    -0.874841374801E+02   -0.14120E-04   -0.44156E-06    71   0.862E-03    0.170E-03
RMM:   8    -0.874841613873E+02   -0.23907E-04   -0.66323E-06    73   0.928E-03    0.479E-03
RMM:   9    -0.874841753073E+02   -0.13920E-04   -0.43860E-06    72   0.747E-03    0.530E-04
RMM:  10    -0.874841837629E+02   -0.84556E-05   -0.88160E-07    67   0.352E-03    0.956E-04
RMM:  11    -0.874841897304E+02   -0.59675E-05   -0.47276E-07    60   0.203E-03    0.888E-04
RMM:  12    -0.874841953329E+02   -0.56024E-05   -0.51844E-07    65   0.234E-03    0.211E-04
RMM:  13    -0.874841968703E+02   -0.15374E-05   -0.15043E-07    59   0.115E-03    0.951E-05
RMM:  14    -0.874841992522E+02   -0.23819E-05   -0.97957E-08    51   0.112E-03    0.142E-04
RMM:  15    -0.874841999490E+02   -0.69679E-06   -0.37009E-08    53   0.947E-04
  22 F= -.87484200E+02 E0= -.87484200E+02  d E =-.147934E-11
       N       E                     dE             d eps       ncg     rms          rms(c)
DAV:   1    -0.874916452497E+02   -0.74460E-02   -0.17215E-01    80   0.238E+00    0.382E-01
RMM:   2    -0.874867453223E+02    0.48999E-02   -0.10507E-02    80   0.521E-01    0.242E-01
RMM:   3    -0.874843845013E+02    0.23608E-02   -0.10020E-02    92   0.372E-01    0.440E-02
RMM:   4    -0.874843709185E+02    0.13583E-04   -0.15180E-04    96   0.502E-02    0.219E-02
RMM:   5    -0.874843952281E+02   -0.24310E-04   -0.79848E-05    91   0.349E-02    0.124E-02
RMM:   6    -0.874844113041E+02   -0.16076E-04   -0.56588E-05    92   0.276E-02    0.102E-02
RMM:   7    -0.874844362341E+02   -0.24930E-04   -0.11480E-05    82   0.139E-02    0.244E-03
RMM:   8    -0.874844843279E+02   -0.48094E-04   -0.12716E-05    77   0.125E-02    0.682E-03
RMM:   9    -0.874845064905E+02   -0.22163E-04   -0.90203E-06    79   0.109E-02    0.754E-04
RMM:  10    -0.874845251855E+02   -0.18695E-04   -0.17149E-06    67   0.448E-03    0.151E-03
RMM:  11    -0.874845347852E+02   -0.95997E-05   -0.71692E-07    65   0.256E-03    0.863E-04
RMM:  12    -0.874845424449E+02   -0.76597E-05   -0.66225E-07    63   0.259E-03    0.244E-04
RMM:  13    -0.874845453048E+02   -0.28599E-05   -0.23069E-07    58   0.140E-03    0.126E-04
RMM:  14    -0.874845484643E+02   -0.31595E-05   -0.16514E-07    54   0.129E-03    0.132E-04
RMM:  15    -0.874845493845E+02   -0.92018E-06   -0.59953E-08    53   0.104E-03
  23 F= -.87484549E+02 E0= -.87484549E+02  d E =-.180281E-11
       N       E                     dE             d eps       ncg     rms          rms(c)
DAV:   1    -0.875711570226E+02   -0.86609E-01   -0.21112E+00    80   0.847E+00    0.135E+00
RMM:   2    -0.875118820207E+02    0.59275E-01   -0.13095E-01    85   0.189E+00    0.844E-01
RMM:   3    -0.874832187017E+02    0.28663E-01   -0.12049E-01    92   0.131E+00    0.144E-01
RMM:   4    -0.874831413037E+02    0.77398E-04   -0.18849E-03    96   0.171E-01    0.799E-02
RMM:   5    -0.874834111207E+02   -0.26982E-03   -0.88328E-04    91   0.124E-01    0.446E-02
RMM:   6    -0.874835075695E+02   -0.96449E-04   -0.58783E-04    94   0.895E-02    0.285E-02
RMM:   7    -0.874837572271E+02   -0.24966E-03   -0.95852E-05    82   0.422E-02    0.969E-03
RMM:   8    -0.874841625210E+02   -0.40529E-03   -0.10732E-04    82   0.362E-02    0.197E-02
RMM:   9    -0.874843354590E+02   -0.17294E-03   -0.10111E-04    89   0.358E-02    0.483E-03
RMM:  10    -0.874844963128E+02   -0.16085E-03   -0.20382E-05    86   0.128E-02    0.722E-03
RMM:  11    -0.874845437769E+02   -0.47464E-04   -0.73377E-06    88   0.963E-03    0.165E-03
RMM:  12    -0.874845930166E+02   -0.49240E-04   -0.25916E-06    73   0.526E-03    0.979E-04
RMM:  13    -0.874846262128E+02   -0.33196E-04   -0.12364E-06    64   0.327E-03    0.669E-04
RMM:  14    -0.874846417279E+02   -0.15515E-04   -0.79220E-07    60   0.251E-03    0.465E-04
RMM:  15    -0.874846511869E+02   -0.94590E-05   -0.37267E-07    58   0.188E-03    0.148E-04
RMM:  16    -0.874846554821E+02   -0.42952E-05   -0.17772E-07    58   0.143E-03    0.160E-04
RMM:  17    -0.874846584130E+02   -0.29309E-05   -0.82166E-08    54   0.116E-03    0.141E-04
RMM:  18    -0.874846590477E+02   -0.63469E-06   -0.11493E-08    49   0.808E-04
  24 F= -.87484659E+02 E0= -.87484659E+02  d E =-.388219E-11
       N       E                     dE             d eps       ncg     rms          rms(c)
DAV:   1    -0.874930292956E+02   -0.83709E-02   -0.16163E-01    88   0.234E+00    0.390E-01
RMM:   2    -0.874878290890E+02    0.52002E-02   -0.11750E-02    84   0.559E-01    0.243E-01
RMM:   3    -0.874853902368E+02    0.24389E-02   -0.10904E-02    93   0.387E-01    0.384E-02
RMM:   4    -0.874854115524E+02   -0.21316E-04   -0.13653E-04    95   0.492E-02    0.213E-02
RMM:   5    -0.874854750792E+02   -0.63527E-04   -0.58406E-05    88   0.303E-02    0.138E-02
RMM:   6    -0.874854791147E+02   -0.40355E-05   -0.32679E-05    92   0.212E-02    0.331E-03
RMM:   7    -0.874855194749E+02   -0.40360E-04   -0.44765E-06    74   0.715E-03    0.254E-03
RMM:   8    -0.874855520586E+02   -0.32584E-04   -0.39748E-06    74   0.543E-03    0.184E-03
RMM:   9    -0.874855771543E+02   -0.25096E-04   -0.50714E-06    75   0.603E-03    0.110E-03
RMM:  10    -0.874855891859E+02   -0.12032E-04   -0.13188E-06    66   0.309E-03    0.680E-04
RMM:  11    -0.874855960009E+02   -0.68150E-05   -0.88327E-07    69   0.286E-03    0.531E-04
RMM:  12    -0.874855991260E+02   -0.31251E-05   -0.28819E-07    62   0.157E-03    0.259E-04
RMM:  13    -0.874856015430E+02   -0.24170E-05   -0.19504E-07    62   0.148E-03    0.213E-04
RMM:  14    -0.874856029771E+02   -0.14341E-05   -0.71016E-08    54   0.100E-03    0.944E-05
RMM:  15    -0.874856041533E+02   -0.11762E-05   -0.38976E-08    54   0.101E-03    0.118E-04
RMM:  16    -0.874856049383E+02   -0.78493E-06    0.00000E+00    47   0.818E-04
  25 F= -.87485605E+02 E0= -.87485605E+02  d E =-.388811E-11
       N       E                     dE             d eps       ncg     rms          rms(c)
DAV:   1    -0.874899218601E+02   -0.43177E-02   -0.98030E-02    88   0.170E+00    0.295E-01
RMM:   2    -0.874871791627E+02    0.27427E-02   -0.55112E-03    81   0.352E-01    0.187E-01
RMM:   3    -0.874858104404E+02    0.13687E-02   -0.55064E-03    92   0.267E-01    0.311E-02
RMM:   4    -0.874858026285E+02    0.78118E-05   -0.66692E-05    96   0.331E-02    0.138E-02
RMM:   5    -0.874858132688E+02   -0.10640E-04   -0.26487E-05    91   0.213E-02    0.777E-03
RMM:   6    -0.874858204355E+02   -0.71667E-05   -0.16390E-05    90   0.144E-02    0.450E-03
RMM:   7    -0.874858357931E+02   -0.15358E-04   -0.28335E-06    69   0.676E-03    0.199E-03
RMM:   8    -0.874858659036E+02   -0.30111E-04   -0.41937E-06    71   0.650E-03    0.294E-03
RMM:   9    -0.874858802724E+02   -0.14369E-04   -0.31722E-06    69   0.590E-03    0.796E-04
RMM:  10    -0.874858909298E+02   -0.10657E-04   -0.62211E-07    65   0.258E-03    0.909E-04
RMM:  11    -0.874859002304E+02   -0.93006E-05   -0.64201E-07    59   0.232E-03    0.229E-04
RMM:  12    -0.874859052929E+02   -0.50625E-05   -0.36948E-07    63   0.175E-03    0.224E-04
RMM:  13    -0.874859068897E+02   -0.15968E-05   -0.13785E-07    57   0.107E-03    0.163E-04
RMM:  14    -0.874859095075E+02   -0.26178E-05   -0.92902E-08    53   0.113E-03    0.773E-05
RMM:  15    -0.874859100941E+02   -0.58666E-06   -0.15493E-08    49   0.909E-04
  26 F= -.87485910E+02 E0= -.87485910E+02  d E =-.309698E-11
       N       E                     dE             d eps       ncg     rms          rms(c)
DAV:   1    -0.874951408972E+02   -0.92314E-02   -0.22920E-01    88   0.271E+00    0.443E-01
RMM:   2    -0.874890047789E+02    0.61361E-02   -0.12945E-02    83   0.576E-01    0.280E-01
RMM:   3    -0.874859181045E+02    0.30867E-02   -0.12192E-02    93   0.415E-01    0.457E-02
RMM:   4    -0.874859028239E+02    0.15281E-04   -0.16665E-04    96   0.510E-02    0.247E-02
RMM:   5    -0.874859257575E+02   -0.22934E-04   -0.79144E-05    91   0.385E-02    0.134E-02
RMM:   6    -0.874859399191E+02   -0.14162E-04   -0.46306E-05    92   0.248E-02    0.711E-03
RMM:   7    -0.874859762129E+02   -0.36294E-04   -0.76552E-06    83   0.114E-02    0.353E-03
RMM:   8    -0.874860532068E+02   -0.76994E-04   -0.10807E-05    74   0.105E-02    0.468E-03
RMM:   9    -0.874860843559E+02   -0.31149E-04   -0.92999E-06    82   0.104E-02    0.208E-03
RMM:  10    -0.874861126134E+02   -0.28258E-04   -0.16803E-06    69   0.392E-03    0.180E-03
RMM:  11    -0.874861272668E+02   -0.14653E-04   -0.13171E-06    69   0.397E-03    0.418E-04
RMM:  12    -0.874861391750E+02   -0.11908E-04   -0.70559E-07    60   0.246E-03    0.456E-04
RMM:  13    -0.874861437269E+02   -0.45519E-05   -0.31755E-07    56   0.165E-03    0.284E-04
RMM:  14    -0.874861477792E+02   -0.40523E-05   -0.24989E-07    64   0.163E-03    0.203E-04
RMM:  15    -0.874861486549E+02   -0.87568E-06   -0.63407E-08    55   0.839E-04
  27 F= -.87486149E+02 E0= -.87486149E+02  d E =-.225656E-11
       N       E                     dE             d eps       ncg     rms          rms(c)
DAV:   1    -0.874977741379E+02   -0.11626E-01   -0.29870E-01    88   0.316E+00    0.496E-01
RMM:   2    -0.874900761631E+02    0.76980E-02   -0.16493E-02    83   0.668E-01    0.312E-01
RMM:   3    -0.874861609549E+02    0.39152E-02   -0.15043E-02    92   0.474E-01    0.493E-02
RMM:   4    -0.874861502757E+02    0.10679E-04   -0.21001E-04    97   0.563E-02    0.279E-02
RMM:   5    -0.874861844805E+02   -0.34205E-04   -0.90610E-05    89   0.423E-02    0.146E-02
RMM:   6    -0.874862058236E+02   -0.21343E-04   -0.45113E-05    93   0.247E-02    0.580E-03
RMM:   7    -0.874862607092E+02   -0.54886E-04   -0.79350E-06    80   0.104E-02    0.403E-03
RMM:   8    -0.874863655148E+02   -0.10481E-03   -0.13633E-05    74   0.108E-02    0.344E-03
RMM:   9    -0.874864131363E+02   -0.47622E-04   -0.11183E-05    85   0.101E-02    0.275E-03
RMM:  10    -0.874864481070E+02   -0.34971E-04   -0.25499E-06    70   0.517E-03    0.744E-04
RMM:  11    -0.874864621113E+02   -0.14004E-04   -0.10584E-06    69   0.361E-03    0.826E-04
RMM:  12    -0.874864735090E+02   -0.11398E-04   -0.59780E-07    58   0.226E-03    0.459E-04
RMM:  13    -0.874864804878E+02   -0.69788E-05   -0.49668E-07    62   0.222E-03    0.381E-04
RMM:  14    -0.874864833033E+02   -0.28155E-05   -0.17047E-07    54   0.125E-03    0.114E-04
RMM:  15    -0.874864851181E+02   -0.18148E-05   -0.86731E-08    55   0.116E-03    0.136E-04
RMM:  16    -0.874864861541E+02   -0.10360E-05   -0.18105E-08    48   0.868E-04    0.920E-05
RMM:  17    -0.874864871416E+02   -0.98741E-06    0.00000E+00    39   0.892E-04
  28 F= -.87486487E+02 E0= -.87486487E+02  d E =-.188612E-11
       N       E                     dE             d eps       ncg     rms          rms(c)
DAV:   1    -0.876475671036E+02   -0.16108E+00   -0.40743E+00    80   0.116E+01    0.184E+00
RMM:   2    -0.875376961998E+02    0.10987E+00   -0.24044E-01    85   0.254E+00    0.115E+00
RMM:   3    -0.874840731180E+02    0.53623E-01   -0.22073E-01    93   0.178E+00    0.182E-01
RMM:   4    -0.874839817142E+02    0.91404E-04   -0.30044E-03    96   0.218E-01    0.105E-01
RMM:   5    -0.874844843590E+02   -0.50264E-03   -0.14802E-03    88   0.164E-01    0.610E-02
RMM:   6    -0.874845345732E+02   -0.50214E-04   -0.69703E-04    93   0.979E-02    0.196E-02
RMM:   7    -0.874850242009E+02   -0.48963E-03   -0.10198E-04    86   0.361E-02    0.149E-02
RMM:   8    -0.874857473529E+02   -0.72315E-03   -0.13810E-04    84   0.348E-02    0.112E-02
RMM:   9    -0.874861219441E+02   -0.37459E-03   -0.12753E-04    90   0.329E-02    0.926E-03
RMM:  10    -0.874863521214E+02   -0.23018E-03   -0.26899E-05    88   0.162E-02    0.279E-03
RMM:  11    -0.874864319135E+02   -0.79792E-04   -0.10066E-05    90   0.962E-03    0.303E-03
RMM:  12    -0.874865030591E+02   -0.71146E-04   -0.37414E-06    74   0.619E-03    0.969E-04
RMM:  13    -0.874865407012E+02   -0.37642E-04   -0.15644E-06    66   0.355E-03    0.535E-04
RMM:  14    -0.874865543820E+02   -0.13681E-04   -0.58131E-07    58   0.222E-03    0.342E-04
RMM:  15    -0.874865700117E+02   -0.15630E-04   -0.44522E-07    62   0.221E-03    0.242E-04
RMM:  16    -0.874865745490E+02   -0.45373E-05   -0.14047E-07    56   0.124E-03    0.112E-04
RMM:  17    -0.874865769362E+02   -0.23873E-05   -0.48775E-08    49   0.106E-03    0.529E-05
RMM:  18    -0.874865785791E+02   -0.16428E-05   -0.31620E-08    51   0.100E-03    0.544E-05
RMM:  19    -0.874865792528E+02   -0.67376E-06   -0.21959E-09    47   0.842E-04
  29 F= -.87486579E+02 E0= -.87486579E+02  d E =-.481796E-12
       N       E                     dE             d eps       ncg     rms          rms(c)
DAV:   1    -0.874983582905E+02   -0.11780E-01   -0.26200E-01    88   0.284E+00    0.482E-01
RMM:   2    -0.874906620577E+02    0.76962E-02   -0.17315E-02    85   0.647E-01    0.302E-01
RMM:   3    -0.874868596299E+02    0.38024E-02   -0.15737E-02    94   0.451E-01    0.473E-02
RMM:   4    -0.874868901403E+02   -0.30510E-04   -0.19470E-04    95   0.562E-02    0.261E-02
RMM:   5    -0.874869860096E+02   -0.95869E-04   -0.10986E-04    85   0.421E-02    0.176E-02
RMM:   6    -0.874869924950E+02   -0.64854E-05   -0.51299E-05    93   0.256E-02    0.459E-03
RMM:   7    -0.874870503042E+02   -0.57809E-04   -0.87040E-06    78   0.976E-03    0.380E-03
RMM:   8    -0.874871025396E+02   -0.52235E-04   -0.77915E-06    75   0.793E-03    0.268E-03
RMM:   9    -0.874871392323E+02   -0.36693E-04   -0.82757E-06    75   0.788E-03    0.147E-03
RMM:  10    -0.874871634574E+02   -0.24225E-04   -0.31273E-06    70   0.475E-03    0.134E-03
RMM:  11    -0.874871721687E+02   -0.87113E-05   -0.13973E-06    70   0.401E-03    0.847E-04
RMM:  12    -0.874871778012E+02   -0.56326E-05   -0.46747E-07    66   0.211E-03    0.551E-04
RMM:  13    -0.874871813069E+02   -0.35057E-05   -0.31609E-07    64   0.189E-03    0.254E-04
RMM:  14    -0.874871835462E+02   -0.22393E-05   -0.13939E-07    61   0.123E-03    0.132E-04
RMM:  15    -0.874871846345E+02   -0.10883E-05   -0.41135E-08    53   0.927E-04    0.612E-05
RMM:  16    -0.874871862987E+02   -0.16643E-05   -0.25736E-08    46   0.967E-04    0.731E-05
RMM:  17    -0.874871865941E+02   -0.29535E-06    0.00000E+00    45   0.763E-04
  30 F= -.87487187E+02 E0= -.87487187E+02  d E =-.450393E-12
       N       E                     dE             d eps       ncg     rms          rms(c)
DAV:   1    -0.874886665313E+02   -0.14802E-02   -0.32123E-02    88   0.102E+00    0.170E-01
RMM:   2    -0.874877096819E+02    0.95685E-03   -0.19555E-03    82   0.223E-01    0.107E-01
RMM:   3    -0.874872198661E+02    0.48982E-03   -0.19138E-03    94   0.164E-01    0.165E-02
RMM:   4    -0.874872232065E+02   -0.33403E-05   -0.23918E-05    93   0.197E-02    0.834E-03
RMM:   5    -0.874872341288E+02   -0.10922E-04   -0.95425E-06    88   0.136E-02    0.529E-03
RMM:   6    -0.874872376177E+02   -0.34889E-05   -0.51463E-06    83   0.832E-03    0.167E-03
RMM:   7    -0.874872487733E+02   -0.11156E-04   -0.91955E-07    61   0.341E-03    0.116E-03
RMM:   8    -0.874872606611E+02   -0.11888E-04   -0.10824E-06    59   0.291E-03    0.858E-04
RMM:   9    -0.874872689411E+02   -0.82800E-05   -0.13191E-06    59   0.304E-03    0.398E-04
RMM:  10    -0.874872741296E+02   -0.51884E-05   -0.57057E-07    65   0.217E-03    0.480E-04
RMM:  11    -0.874872761935E+02   -0.20639E-05   -0.24231E-07    57   0.138E-03    0.180E-04
RMM:  12    -0.874872779913E+02   -0.17979E-05   -0.18150E-07    63   0.142E-03    0.231E-04
RMM:  13    -0.874872789311E+02   -0.93973E-06   -0.37300E-08    49   0.919E-04
  31 F= -.87487279E+02 E0= -.87487279E+02  d E =-.495523E-12
       N       E                     dE             d eps       ncg     rms          rms(c)
DAV:   1    -0.874943250886E+02   -0.70471E-02   -0.15653E-01    88   0.229E+00    0.358E-01
RMM:   2    -0.874895738652E+02    0.47512E-02   -0.99846E-03    84   0.518E-01    0.226E-01
RMM:   3    -0.874871747091E+02    0.23992E-02   -0.97750E-03    94   0.369E-01    0.356E-02
RMM:   4    -0.874871994583E+02   -0.24749E-04   -0.12830E-04    95   0.463E-02    0.191E-02
RMM:   5    -0.874872496299E+02   -0.50172E-04   -0.41740E-05    87   0.273E-02    0.108E-02
RMM:   6    -0.874872711512E+02   -0.21521E-04   -0.32643E-05    92   0.207E-02    0.525E-03
RMM:   7    -0.874873196484E+02   -0.48497E-04   -0.63513E-06    78   0.959E-03    0.317E-03
RMM:   8    -0.874873908147E+02   -0.71166E-04   -0.93917E-06    75   0.907E-03    0.323E-03
RMM:   9    -0.874874187272E+02   -0.27913E-04   -0.62831E-06    79   0.765E-03    0.126E-03
RMM:  10    -0.874874384265E+02   -0.19699E-04   -0.16296E-06    69   0.368E-03    0.148E-03
RMM:  11    -0.874874494389E+02   -0.11012E-04   -0.10007E-06    69   0.303E-03    0.402E-04
RMM:  12    -0.874874571864E+02   -0.77475E-05   -0.63371E-07    66   0.245E-03    0.494E-04
RMM:  13    -0.874874607667E+02   -0.35803E-05   -0.29598E-07    57   0.155E-03    0.257E-04
RMM:  14    -0.874874632250E+02   -0.24584E-05   -0.18603E-07    61   0.152E-03    0.218E-04
RMM:  15    -0.874874641199E+02   -0.89481E-06   -0.45284E-08    52   0.883E-04
  32 F= -.87487464E+02 E0= -.87487464E+02  d E =-.387092E-12
       N       E                     dE             d eps       ncg     rms          rms(c)
DAV:   1    -0.875238821466E+02   -0.36419E-01   -0.95596E-01    80   0.559E+00    0.856E-01
RMM:   2    -0.874987535877E+02    0.25129E-01   -0.55452E-02    84   0.123E+00    0.528E-01
RMM:   3    -0.874863707891E+02    0.12383E-01   -0.50664E-02    93   0.845E-01    0.975E-02
RMM:   4    -0.874863783299E+02   -0.75408E-05   -0.83137E-04    96   0.114E-01    0.557E-02
RMM:   5    -0.874865792318E+02   -0.20090E-03   -0.38955E-04    91   0.805E-02    0.281E-02
RMM:   6    -0.874867011270E+02   -0.12190E-03   -0.25716E-04    91   0.578E-02    0.191E-02
RMM:   7    -0.874869002784E+02   -0.19915E-03   -0.61624E-05    84   0.317E-02    0.810E-03
RMM:   8    -0.874872446415E+02   -0.34436E-03   -0.78198E-05    78   0.296E-02    0.145E-02
RMM:   9    -0.874873467957E+02   -0.10215E-03   -0.63659E-05    93   0.273E-02    0.431E-03
RMM:  10    -0.874874384796E+02   -0.91684E-04   -0.89633E-06    79   0.862E-03    0.509E-03
RMM:  11    -0.874874895463E+02   -0.51067E-04   -0.69844E-06    82   0.866E-03    0.109E-03
RMM:  12    -0.874875151012E+02   -0.25555E-04   -0.11553E-06    70   0.336E-03    0.635E-04
RMM:  13    -0.874875411128E+02   -0.26012E-04   -0.13864E-06    65   0.322E-03    0.548E-04
RMM:  14    -0.874875513183E+02   -0.10206E-04   -0.46878E-07    62   0.204E-03    0.490E-04
RMM:  15    -0.874875561152E+02   -0.47969E-05   -0.20458E-07    62   0.158E-03    0.139E-04
RMM:  16    -0.874875598355E+02   -0.37203E-05   -0.86886E-08    56   0.125E-03    0.103E-04
RMM:  17    -0.874875611540E+02   -0.13186E-05   -0.19433E-08    53   0.900E-04    0.892E-05
RMM:  18    -0.874875625605E+02   -0.14064E-05   -0.90807E-09    44   0.800E-04    0.374E-05
RMM:  19    -0.874875631684E+02   -0.60794E-06   -0.27454E-09    46   0.790E-04
  33 F= -.87487563E+02 E0= -.87487563E+02  d E =-.217548E-12
       N       E                     dE             d eps       ncg     rms          rms(c)
DAV:   1    -0.874903620805E+02   -0.27995E-02   -0.54700E-02    88   0.135E+00    0.221E-01
RMM:   2    -0.874886129549E+02    0.17491E-02   -0.39242E-03    81   0.323E-01    0.137E-01
RMM:   3    -0.874878010213E+02    0.81193E-03   -0.37118E-03    92   0.221E-01    0.227E-02
RMM:   4    -0.874878105795E+02   -0.95582E-05   -0.46852E-05    94   0.294E-02    0.130E-02
RMM:   5    -0.874878320740E+02   -0.21495E-04   -0.17032E-05    89   0.165E-02    0.752E-03
RMM:   6    -0.874878386761E+02   -0.66020E-05   -0.14632E-05    91   0.142E-02    0.333E-03
RMM:   7    -0.874878590776E+02   -0.20402E-04   -0.22486E-06    66   0.580E-03    0.178E-03
RMM:   8    -0.874878847971E+02   -0.25720E-04   -0.26783E-06    65   0.484E-03    0.191E-03
RMM:   9    -0.874878988711E+02   -0.14074E-04   -0.22154E-06    66   0.459E-03    0.616E-04
RMM:  10    -0.874879086603E+02   -0.97892E-05   -0.87851E-07    58   0.293E-03    0.985E-04
RMM:  11    -0.874879132922E+02   -0.46318E-05   -0.47120E-07    63   0.198E-03    0.411E-04
RMM:  12    -0.874879177681E+02   -0.44759E-05   -0.46640E-07    62   0.226E-03    0.507E-04
RMM:  13    -0.874879187711E+02   -0.10030E-05   -0.11880E-07    57   0.106E-03    0.369E-04
RMM:  14    -0.874879202573E+02   -0.14863E-05   -0.12155E-07    62   0.137E-03    0.201E-04
RMM:  15    -0.874879210877E+02   -0.83041E-06   -0.16028E-08    49   0.727E-04
  34 F= -.87487921E+02 E0= -.87487921E+02  d E =-.234931E-12
       N       E                     dE             d eps       ncg     rms          rms(c)
DAV:   1    -0.874951813172E+02   -0.72611E-02   -0.18548E-01    80   0.247E+00    0.385E-01
RMM:   2    -0.874902169250E+02    0.49644E-02   -0.10593E-02    83   0.539E-01    0.237E-01
RMM:   3    -0.874878406907E+02    0.23762E-02   -0.98910E-03    93   0.375E-01    0.458E-02
RMM:   4    -0.874878314347E+02    0.92560E-05   -0.16297E-04    95   0.526E-02    0.248E-02
RMM:   5    -0.874878696726E+02   -0.38238E-04   -0.90712E-05    93   0.380E-02    0.131E-02
RMM:   6    -0.874878994710E+02   -0.29798E-04   -0.66477E-05    91   0.295E-02    0.110E-02
RMM:   7    -0.874879472101E+02   -0.47739E-04   -0.19291E-05    84   0.179E-02    0.384E-03
RMM:   8    -0.874880439257E+02   -0.96716E-04   -0.18033E-05    74   0.142E-02    0.771E-03
RMM:   9    -0.874880743195E+02   -0.30394E-04   -0.13819E-05    88   0.130E-02    0.133E-03
RMM:  10    -0.874881072743E+02   -0.32955E-04   -0.27788E-06    69   0.511E-03    0.209E-03
RMM:  11    -0.874881242450E+02   -0.16971E-04   -0.13400E-06    65   0.356E-03    0.754E-04
RMM:  12    -0.874881342639E+02   -0.10019E-04   -0.69775E-07    66   0.260E-03    0.268E-04
RMM:  13    -0.874881422261E+02   -0.79622E-05   -0.45988E-07    60   0.194E-03    0.179E-04
RMM:  14    -0.874881458944E+02   -0.36683E-05   -0.22882E-07    61   0.145E-03    0.232E-04
RMM:  15    -0.874881480267E+02   -0.21323E-05   -0.66561E-08    53   0.103E-03    0.151E-04
RMM:  16    -0.874881496890E+02   -0.16623E-05   -0.35580E-08    55   0.106E-03    0.413E-05
RMM:  17    -0.874881504262E+02   -0.73723E-06   -0.54545E-09    49   0.874E-04
  35 F= -.87488150E+02 E0= -.87488150E+02  d E =-.247714E-12
       N       E                     dE             d eps       ncg     rms          rms(c)
DAV:   1    -0.875052489467E+02   -0.17099E-01   -0.45867E-01    80   0.387E+00    0.600E-01
RMM:   2    -0.874934170793E+02    0.11832E-01   -0.25076E-02    83   0.829E-01    0.368E-01
RMM:   3    -0.874877084842E+02    0.57086E-02   -0.23292E-02    93   0.579E-01    0.724E-02
RMM:   4    -0.874876875288E+02    0.20955E-04   -0.39880E-04    96   0.810E-02    0.395E-02
RMM:   5    -0.874877780088E+02   -0.90480E-04   -0.21979E-04    93   0.594E-02    0.199E-02
RMM:   6    -0.874878474334E+02   -0.69425E-04   -0.14678E-04    92   0.436E-02    0.164E-02
RMM:   7    -0.874879550921E+02   -0.10766E-03   -0.44427E-05    86   0.272E-02    0.617E-03
RMM:   8    -0.874881554806E+02   -0.20039E-03   -0.43016E-05    73   0.218E-02    0.116E-02
RMM:   9    -0.874882165453E+02   -0.61065E-04   -0.32366E-05    89   0.198E-02    0.221E-03
RMM:  10    -0.874882737508E+02   -0.57205E-04   -0.56399E-06    81   0.678E-03    0.280E-03
RMM:  11    -0.874883090944E+02   -0.35344E-04   -0.28531E-06    71   0.505E-03    0.755E-04
RMM:  12    -0.874883279502E+02   -0.18856E-04   -0.84821E-07    65   0.274E-03    0.471E-04
RMM:  13    -0.874883434448E+02   -0.15495E-04   -0.77068E-07    64   0.252E-03    0.267E-04
RMM:  14    -0.874883494788E+02   -0.60340E-05   -0.37176E-07    64   0.186E-03    0.403E-04
RMM:  15    -0.874883529857E+02   -0.35069E-05   -0.11025E-07    55   0.118E-03    0.221E-04
RMM:  16    -0.874883555427E+02   -0.25570E-05   -0.92271E-08    60   0.135E-03    0.185E-04
RMM:  17    -0.874883562834E+02   -0.74067E-06   -0.37745E-09    47   0.769E-04
  36 F= -.87488356E+02 E0= -.87488356E+02  d E =-.184154E-12
       N       E                     dE             d eps       ncg     rms          rms(c)
DAV:   1    -0.875191819010E+02   -0.30826E-01   -0.80401E-01    80   0.515E+00    0.799E-01
RMM:   2    -0.874978890983E+02    0.21293E-01   -0.44284E-02    83   0.111E+00    0.490E-01
RMM:   3    -0.874876345223E+02    0.10255E-01   -0.41721E-02    93   0.782E-01    0.958E-02
RMM:   4    -0.874876183343E+02    0.16188E-04   -0.66369E-04    95   0.109E-01    0.493E-02
RMM:   5    -0.874877849809E+02   -0.16665E-03   -0.38049E-04    93   0.789E-02    0.263E-02
RMM:   6    -0.874879007211E+02   -0.11574E-03   -0.31674E-04    93   0.659E-02    0.258E-02
RMM:   7    -0.874880686787E+02   -0.16796E-03   -0.94884E-05    85   0.406E-02    0.766E-03
RMM:   8    -0.874883712170E+02   -0.30254E-03   -0.94353E-05    75   0.340E-02    0.187E-02
RMM:   9    -0.874884539299E+02   -0.82713E-04   -0.56667E-05    90   0.275E-02    0.230E-03
RMM:  10    -0.874885298812E+02   -0.75951E-04   -0.15039E-05    88   0.124E-02    0.474E-03
RMM:  11    -0.874885767986E+02   -0.46917E-04   -0.35255E-06    74   0.575E-03    0.237E-03
RMM:  12    -0.874886104445E+02   -0.33646E-04   -0.29397E-06    73   0.531E-03    0.630E-04
RMM:  13    -0.874886316704E+02   -0.21226E-04   -0.81555E-07    65   0.281E-03    0.503E-04
RMM:  14    -0.874886407666E+02   -0.90963E-05   -0.62929E-07    68   0.255E-03    0.539E-04
RMM:  15    -0.874886473066E+02   -0.65400E-05   -0.22693E-07    64   0.163E-03    0.563E-04
RMM:  16    -0.874886494655E+02   -0.21589E-05   -0.82983E-08    59   0.120E-03    0.237E-04
RMM:  17    -0.874886514731E+02   -0.20076E-05   -0.10428E-07    61   0.139E-03    0.293E-04
RMM:  18    -0.874886518656E+02   -0.39250E-06   -0.36319E-09    48   0.702E-04
  37 F= -.87488652E+02 E0= -.87488652E+02  d E =-.145413E-12
       N       E                     dE             d eps       ncg     rms          rms(c)
DAV:   1    -0.876011060247E+02   -0.11245E+00   -0.29001E+00    80   0.976E+00    0.153E+00
RMM:   2    -0.875218835177E+02    0.79223E-01   -0.16808E-01    82   0.215E+00    0.941E-01
RMM:   3    -0.874857388349E+02    0.36145E-01   -0.15899E-01    92   0.150E+00    0.195E-01
RMM:   4    -0.874856593270E+02    0.79508E-04   -0.26289E-03    95   0.221E-01    0.971E-02
RMM:   5    -0.874862757340E+02   -0.61641E-03   -0.15862E-03    91   0.160E-01    0.536E-02
RMM:   6    -0.874865013704E+02   -0.22564E-03   -0.12517E-03    93   0.132E-01    0.499E-02
RMM:   7    -0.874869115546E+02   -0.41018E-03   -0.33843E-04    85   0.779E-02    0.135E-02
RMM:   8    -0.874874677897E+02   -0.55624E-03   -0.24275E-04    79   0.572E-02    0.322E-02
RMM:   9    -0.874877152140E+02   -0.24742E-03   -0.16866E-04    85   0.468E-02    0.488E-03
RMM:  10    -0.874878706281E+02   -0.15541E-03   -0.57301E-05    95   0.245E-02    0.986E-03
RMM:  11    -0.874879581276E+02   -0.87500E-04   -0.10931E-05    85   0.110E-02    0.423E-03
RMM:  12    -0.874880240311E+02   -0.65903E-04   -0.80321E-06    83   0.931E-03    0.140E-03
RMM:  13    -0.874880680623E+02   -0.44031E-04   -0.20823E-06    72   0.453E-03    0.921E-04
RMM:  14    -0.874880922519E+02   -0.24190E-04   -0.12208E-06    69   0.321E-03    0.523E-04
RMM:  15    -0.874881046423E+02   -0.12390E-04   -0.48861E-07    66   0.235E-03    0.818E-04
RMM:  16    -0.874881102568E+02   -0.56145E-05   -0.18464E-07    65   0.164E-03    0.256E-04
RMM:  17    -0.874881156748E+02   -0.54180E-05   -0.21336E-07    62   0.180E-03    0.490E-04
RMM:  18    -0.874881165221E+02   -0.84733E-06   -0.17414E-08    51   0.802E-04
  38 F= -.87488117E+02 E0= -.87488117E+02  d E =-.753956E-13
       N       E                     dE             d eps       ncg     rms          rms(c)
DAV:   1    -0.875467940145E+02   -0.58678E-01   -0.14932E+00    80   0.700E+00    0.110E+00
RMM:   2    -0.875061813152E+02    0.40613E-01   -0.86419E-02    84   0.154E+00    0.676E-01
RMM:   3    -0.874873560272E+02    0.18825E-01   -0.83256E-02    92   0.109E+00    0.145E-01
RMM:   4    -0.874872066115E+02    0.14942E-03   -0.14140E-03    95   0.162E-01    0.711E-02
RMM:   5    -0.874874887790E+02   -0.28217E-03   -0.86800E-04    92   0.119E-01    0.396E-02
RMM:   6    -0.874876289572E+02   -0.14018E-03   -0.67377E-04    92   0.971E-02    0.364E-02
RMM:   7    -0.874878831361E+02   -0.25418E-03   -0.17520E-04    91   0.560E-02    0.976E-03
RMM:   8    -0.874882924666E+02   -0.40933E-03   -0.13777E-04    80   0.425E-02    0.239E-02
RMM:   9    -0.874884531912E+02   -0.16072E-03   -0.94707E-05    88   0.342E-02    0.352E-03
RMM:  10    -0.874885640976E+02   -0.11091E-03   -0.31682E-05    93   0.179E-02    0.739E-03
RMM:  11    -0.874886365233E+02   -0.72426E-04   -0.72270E-06    80   0.883E-03    0.295E-03
RMM:  12    -0.874886864860E+02   -0.49963E-04   -0.46722E-06    76   0.680E-03    0.910E-04
RMM:  13    -0.874887218726E+02   -0.35387E-04   -0.18497E-06    68   0.379E-03    0.572E-04
RMM:  14    -0.874887324276E+02   -0.10555E-04   -0.73855E-07    67   0.279E-03    0.698E-04
RMM:  15    -0.874887399756E+02   -0.75481E-05   -0.28382E-07    64   0.178E-03    0.634E-04
RMM:  16    -0.874887443428E+02   -0.43672E-05   -0.18467E-07    65   0.164E-03    0.138E-04
RMM:  17    -0.874887466463E+02   -0.23034E-05   -0.68022E-08    54   0.110E-03    0.213E-04
RMM:  18    -0.874887475658E+02   -0.91952E-06   -0.71321E-09    49   0.781E-04
  39 F= -.87488748E+02 E0= -.87488748E+02  d E =-.125107E-12
       N       E                     dE             d eps       ncg     rms          rms(c)
DAV:   1    -0.875043389168E+02   -0.15592E-01   -0.40266E-01    88   0.364E+00    0.566E-01
RMM:   2    -0.874935592553E+02    0.10780E-01   -0.22097E-02    83   0.786E-01    0.347E-01
RMM:   3    -0.874883466285E+02    0.52126E-02   -0.21106E-02    93   0.559E-01    0.721E-02
RMM:   4    -0.874883243669E+02    0.22262E-04   -0.34589E-04    95   0.798E-02    0.350E-02
RMM:   5    -0.874884095353E+02   -0.85168E-04   -0.21706E-04    93   0.596E-02    0.190E-02
RMM:   6    -0.874884766138E+02   -0.67079E-04   -0.18823E-04    92   0.515E-02    0.208E-02
RMM:   7    -0.874885698107E+02   -0.93197E-04   -0.55976E-05    87   0.315E-02    0.522E-03
RMM:   8    -0.874887299704E+02   -0.16016E-03   -0.55161E-05    80   0.265E-02    0.149E-02
RMM:   9    -0.874887830766E+02   -0.53106E-04   -0.30682E-05    91   0.204E-02    0.241E-03
RMM:  10    -0.874888262076E+02   -0.43131E-04   -0.89221E-06    83   0.967E-03    0.274E-03
RMM:  11    -0.874888555653E+02   -0.29358E-04   -0.16662E-06    70   0.396E-03    0.172E-03
RMM:  12    -0.874888802492E+02   -0.24684E-04   -0.19678E-06    68   0.407E-03    0.491E-04
RMM:  13    -0.874888927022E+02   -0.12453E-04   -0.66166E-07    64   0.246E-03    0.510E-04
RMM:  14    -0.874888977036E+02   -0.50014E-05   -0.33214E-07    67   0.189E-03    0.280E-04
RMM:  15    -0.874889007598E+02   -0.30562E-05   -0.21211E-07    63   0.164E-03    0.600E-04
RMM:  16    -0.874889019153E+02   -0.11555E-05   -0.49138E-08    56   0.979E-04    0.369E-04
RMM:  17    -0.874889043076E+02   -0.23923E-05   -0.15205E-07    58   0.160E-03    0.371E-04
RMM:  18    -0.874889046965E+02   -0.38890E-06   -0.33269E-09    46   0.699E-04
  40 F= -.87488905E+02 E0= -.87488905E+02  d E =-.113090E-12
       N       E                     dE             d eps       ncg     rms          rms(c)
DAV:   1    -0.874916530813E+02   -0.27488E-02   -0.64207E-02    88   0.145E+00    0.232E-01
RMM:   2    -0.874897981686E+02    0.18549E-02   -0.37462E-03    79   0.322E-01    0.143E-01
RMM:   3    -0.874888904201E+02    0.90775E-03   -0.37029E-03    92   0.234E-01    0.298E-02
RMM:   4    -0.874888862957E+02    0.41244E-05   -0.57654E-05    95   0.336E-02    0.128E-02
RMM:   5    -0.874889003376E+02   -0.14042E-04   -0.33524E-05    92   0.233E-02    0.754E-03
RMM:   6    -0.874889091140E+02   -0.87764E-05   -0.25546E-05    92   0.192E-02    0.724E-03
RMM:   7    -0.874889268577E+02   -0.17744E-04   -0.60655E-06    78   0.104E-02    0.183E-03
RMM:   8    -0.874889504038E+02   -0.23546E-04   -0.61332E-06    77   0.912E-03    0.491E-03
RMM:   9    -0.874889651699E+02   -0.14766E-04   -0.40893E-06    76   0.730E-03    0.813E-04
RMM:  10    -0.874889730950E+02   -0.79251E-05   -0.85453E-07    68   0.352E-03    0.529E-04
RMM:  11    -0.874889818275E+02   -0.87325E-05   -0.63554E-07    58   0.238E-03    0.624E-04
RMM:  12    -0.874889866430E+02   -0.48155E-05   -0.37702E-07    57   0.175E-03    0.268E-04
RMM:  13    -0.874889901508E+02   -0.35079E-05   -0.28484E-07    61   0.165E-03    0.129E-04
RMM:  14    -0.874889914496E+02   -0.12988E-05   -0.89566E-08    55   0.947E-04    0.104E-04
RMM:  15    -0.874889926906E+02   -0.12410E-05   -0.22946E-08    48   0.829E-04    0.399E-05
RMM:  16    -0.874889934612E+02   -0.77057E-06   -0.94366E-09    49   0.844E-04
  41 F= -.87488993E+02 E0= -.87488993E+02  d E =-.148997E-12
       N       E                     dE             d eps       ncg     rms          rms(c)
DAV:   1    -0.875128470423E+02   -0.23854E-01   -0.57159E-01    80   0.434E+00    0.689E-01
RMM:   2    -0.874964333162E+02    0.16414E-01   -0.33304E-02    82   0.964E-01    0.427E-01
RMM:   3    -0.874886194630E+02    0.78139E-02   -0.33364E-02    92   0.698E-01    0.931E-02
RMM:   4    -0.874885780246E+02    0.41438E-04   -0.53067E-04    95   0.102E-01    0.409E-02
RMM:   5    -0.874887157248E+02   -0.13770E-03   -0.35911E-04    89   0.764E-02    0.237E-02
RMM:   6    -0.874887681202E+02   -0.52395E-04   -0.25084E-04    92   0.602E-02    0.224E-02
RMM:   7    -0.874888833232E+02   -0.11520E-03   -0.57998E-05    84   0.324E-02    0.553E-03
RMM:   8    -0.874890058832E+02   -0.12256E-03   -0.52180E-05    81   0.269E-02    0.149E-02
RMM:   9    -0.874890812196E+02   -0.75336E-04   -0.31598E-05    85   0.203E-02    0.283E-03
RMM:  10    -0.874891251591E+02   -0.43940E-04   -0.12088E-05    89   0.112E-02    0.347E-03
RMM:  11    -0.874891528971E+02   -0.27738E-04   -0.15658E-06    67   0.429E-03    0.204E-03
RMM:  12    -0.874891799971E+02   -0.27100E-04   -0.27528E-06    72   0.503E-03    0.732E-04
RMM:  13    -0.874891935645E+02   -0.13567E-04   -0.66745E-07    69   0.272E-03    0.578E-04
RMM:  14    -0.874891996323E+02   -0.60678E-05   -0.30508E-07    61   0.164E-03    0.419E-04
RMM:  15    -0.874892041305E+02   -0.44982E-05   -0.30987E-07    65   0.196E-03    0.503E-04
RMM:  16    -0.874892050412E+02   -0.91067E-06   -0.60746E-08    55   0.102E-03
  42 F= -.87489205E+02 E0= -.87489205E+02  d E =-.109972E-12
       N       E                     dE             d eps       ncg     rms          rms(c)
DAV:   1    -0.875377559020E+02   -0.48552E-01   -0.11328E+00    80   0.613E+00    0.980E-01
RMM:   2    -0.875042586106E+02    0.33497E-01   -0.67880E-02    82   0.137E+00    0.610E-01
RMM:   3    -0.874884167434E+02    0.15842E-01   -0.68631E-02    93   0.996E-01    0.129E-01
RMM:   4    -0.874883306908E+02    0.86053E-04   -0.10491E-03    95   0.143E-01    0.558E-02
RMM:   5    -0.874885943214E+02   -0.26363E-03   -0.65511E-04    87   0.103E-01    0.333E-02
RMM:   6    -0.874886745430E+02   -0.80222E-04   -0.46334E-04    93   0.816E-02    0.294E-02
RMM:   7    -0.874888853654E+02   -0.21082E-03   -0.10328E-04    84   0.428E-02    0.772E-03
RMM:   8    -0.874890882687E+02   -0.20290E-03   -0.94565E-05    82   0.361E-02    0.203E-02
RMM:   9    -0.874892048778E+02   -0.11661E-03   -0.64360E-05    85   0.294E-02    0.280E-03
RMM:  10    -0.874892749022E+02   -0.70024E-04   -0.19321E-05    89   0.140E-02    0.502E-03
RMM:  11    -0.874893170714E+02   -0.42169E-04   -0.30510E-06    73   0.575E-03    0.252E-03
RMM:  12    -0.874893562321E+02   -0.39161E-04   -0.36440E-06    77   0.601E-03    0.914E-04
RMM:  13    -0.874893792258E+02   -0.22994E-04   -0.10781E-06    67   0.330E-03    0.562E-04
RMM:  14    -0.874893880084E+02   -0.87826E-05   -0.40509E-07    63   0.192E-03    0.466E-04
RMM:  15    -0.874893940708E+02   -0.60624E-05   -0.31978E-07    64   0.191E-03    0.488E-04
RMM:  16    -0.874893965728E+02   -0.25020E-05   -0.73337E-08    54   0.106E-03    0.367E-04
RMM:  17    -0.874894002868E+02   -0.37140E-05   -0.16721E-07    54   0.168E-03    0.313E-04
RMM:  18    -0.874894005845E+02   -0.29772E-06   -0.61587E-09    49   0.756E-04
  43 F= -.87489401E+02 E0= -.87489401E+02  d E =-.168949E-12
       N       E                     dE             d eps       ncg     rms          rms(c)
DAV:   1    -0.875045308125E+02   -0.15131E-01   -0.34430E-01    88   0.340E+00    0.551E-01
RMM:   2    -0.874942216507E+02    0.10309E-01   -0.20766E-02    82   0.754E-01    0.347E-01
RMM:   3    -0.874892842035E+02    0.49374E-02   -0.21779E-02    94   0.562E-01    0.748E-02
RMM:   4    -0.874892400043E+02    0.44199E-04   -0.33452E-04    95   0.811E-02    0.313E-02
RMM:   5    -0.874893182444E+02   -0.78240E-04   -0.21597E-04    90   0.588E-02    0.189E-02
RMM:   6    -0.874893348270E+02   -0.16583E-04   -0.12109E-04    93   0.418E-02    0.140E-02
RMM:   7    -0.874893950259E+02   -0.60199E-04   -0.22751E-05    83   0.199E-02    0.410E-03
RMM:   8    -0.874894567959E+02   -0.61770E-04   -0.22306E-05    84   0.176E-02    0.986E-03
RMM:   9    -0.874895042503E+02   -0.47454E-04   -0.19627E-05    80   0.156E-02    0.114E-03
RMM:  10    -0.874895284568E+02   -0.24206E-04   -0.45099E-06    80   0.682E-03    0.273E-03
RMM:  11    -0.874895452172E+02   -0.16760E-04   -0.13752E-06    66   0.402E-03    0.839E-04
RMM:  12    -0.874895544395E+02   -0.92223E-05   -0.66825E-07    69   0.261E-03    0.349E-04
RMM:  13    -0.874895635145E+02   -0.90750E-05   -0.57768E-07    59   0.219E-03    0.320E-04
RMM:  14    -0.874895677314E+02   -0.42169E-05   -0.25192E-07    56   0.150E-03    0.266E-04
RMM:  15    -0.874895701018E+02   -0.23704E-05   -0.11387E-07    59   0.121E-03    0.118E-04
RMM:  16    -0.874895717214E+02   -0.16196E-05   -0.34199E-08    52   0.100E-03    0.745E-05
RMM:  17    -0.874895727360E+02   -0.10146E-05   -0.26885E-08    52   0.948E-04    0.424E-05
RMM:  18    -0.874895730863E+02   -0.35037E-06    0.00000E+00    47   0.802E-04
  44 F= -.87489573E+02 E0= -.87489573E+02  d E =-.245516E-12
       N       E                     dE             d eps       ncg     rms          rms(c)
DAV:   1    -0.874903436710E+02   -0.77094E-03   -0.15873E-02    88   0.731E-01    0.121E-01
[...]
RMM:  16    -0.874902724536E+02   -0.10101E-05   -0.13175E-08    50   0.894E-04    0.965E-05
RMM:  17    -0.874902731082E+02   -0.65463E-06   -0.39240E-09    46   0.839E-04
  55 F= -.87490273E+02 E0= -.87490273E+02  d E =-.384476E-12
       N       E                     dE             d eps       ncg     rms          rms(c)
DAV:   1    -0.875041783166E+02   -0.13906E-01   -0.31297E-01    88   0.323E+00    0.526E-01
RMM:   2    -0.874943729500E+02    0.98054E-02   -0.19920E-02    83   0.745E-01    0.321E-01
RMM:   3    -0.874898468720E+02    0.45261E-02   -0.19269E-02    93   0.526E-01    0.620E-02
RMM:   4    -0.874898398111E+02    0.70609E-05   -0.33535E-04    95   0.789E-02    0.269E-02
RMM:   5    -0.874898932282E+02   -0.53417E-04   -0.11627E-04    93   0.410E-02    0.172E-02
RMM:   6    -0.874899458384E+02   -0.52610E-04   -0.14096E-04    90   0.439E-02    0.172E-02
RMM:   7    -0.874900119184E+02   -0.66080E-04   -0.35560E-05    85   0.244E-02    0.407E-03
RMM:   8    -0.874901176454E+02   -0.10573E-03   -0.34077E-05    84   0.204E-02    0.115E-02
RMM:   9    -0.874901762098E+02   -0.58564E-04   -0.24857E-05    86   0.183E-02    0.115E-03
RMM:  10    -0.874902127938E+02   -0.36584E-04   -0.38006E-06    77   0.600E-03    0.154E-03
RMM:  11    -0.874902423105E+02   -0.29517E-04   -0.15827E-06    64   0.367E-03    0.556E-04
RMM:  12    -0.874902588743E+02   -0.16564E-04   -0.86064E-07    59   0.251E-03    0.429E-04
RMM:  13    -0.874902699717E+02   -0.11097E-04   -0.69246E-07    64   0.234E-03    0.194E-04
RMM:  14    -0.874902742924E+02   -0.43207E-05   -0.30176E-07    58   0.159E-03    0.152E-04
RMM:  15    -0.874902770513E+02   -0.27589E-05   -0.11716E-07    60   0.120E-03    0.143E-04
RMM:  16    -0.874902780535E+02   -0.10022E-05   -0.19592E-08    49   0.867E-04    0.102E-04
RMM:  17    -0.874902792483E+02   -0.11948E-05   -0.23317E-08    49   0.940E-04    0.253E-05
RMM:  18    -0.874902796329E+02   -0.38466E-06    0.00000E+00    45   0.833E-04
  56 F= -.87490280E+02 E0= -.87490280E+02  d E =-.489926E-12
       N       E                     dE             d eps       ncg     rms          rms(c)
DAV:   1    -0.874920097414E+02   -0.17305E-02   -0.38305E-02    88   0.112E+00    0.184E-01
RMM:   2    -0.874908307173E+02    0.11790E-02   -0.23938E-03    83   0.255E-01    0.113E-01
RMM:   3    -0.874902439507E+02    0.58677E-03   -0.23632E-03    92   0.183E-01    0.232E-02
RMM:   4    -0.874902422492E+02    0.17015E-05   -0.40854E-05    95   0.277E-02    0.963E-03
RMM:   5    -0.874902509290E+02   -0.86798E-05   -0.17647E-05    91   0.163E-02    0.616E-03
RMM:   6    -0.874902598302E+02   -0.89012E-05   -0.18069E-05    91   0.157E-02    0.613E-03
RMM:   7    -0.874902738179E+02   -0.13988E-04   -0.45001E-06    77   0.869E-03    0.146E-03
RMM:   8    -0.874902936768E+02   -0.19859E-04   -0.44522E-06    71   0.762E-03    0.406E-03
RMM:   9    -0.874903071208E+02   -0.13444E-04   -0.35193E-06    70   0.656E-03    0.498E-04
RMM:  10    -0.874903122468E+02   -0.51260E-05   -0.48145E-07    68   0.250E-03    0.292E-04
RMM:  11    -0.874903191348E+02   -0.68880E-05   -0.54734E-07    58   0.208E-03    0.361E-04
RMM:  12    -0.874903225776E+02   -0.34428E-05   -0.29844E-07    57   0.149E-03    0.307E-04
RMM:  13    -0.874903251072E+02   -0.25296E-05   -0.19863E-07    59   0.138E-03    0.829E-05
RMM:  14    -0.874903261125E+02   -0.10053E-05   -0.62993E-08    54   0.102E-03    0.501E-05
RMM:  15    -0.874903273278E+02   -0.12152E-05   -0.25023E-08    53   0.993E-04    0.488E-05
RMM:  16    -0.874903278402E+02   -0.51238E-06   -0.58587E-09    48   0.885E-04
  57 F= -.87490328E+02 E0= -.87490328E+02  d E =-.350020E-12
       N       E                     dE             d eps       ncg     rms          rms(c)
DAV:   1    -0.874910075997E+02   -0.68027E-03   -0.15307E-02    96   0.701E-01    0.115E-01
RMM:   2    -0.874905414748E+02    0.46612E-03   -0.93078E-04    82   0.157E-01    0.711E-02
RMM:   3    -0.874903092557E+02    0.23222E-03   -0.95328E-04    92   0.115E-01    0.165E-02
RMM:   4    -0.874903069162E+02    0.23395E-05   -0.17138E-05    94   0.183E-02    0.666E-03
RMM:   5    -0.874903102919E+02   -0.33757E-05   -0.10581E-05    89   0.127E-02    0.428E-03
RMM:   6    -0.874903128578E+02   -0.25659E-05   -0.79709E-06    86   0.104E-02    0.380E-03
RMM:   7    -0.874903190380E+02   -0.61803E-05   -0.14929E-06    61   0.528E-03    0.940E-04
RMM:   8    -0.874903260611E+02   -0.70231E-05   -0.13910E-06    62   0.462E-03    0.192E-03
RMM:   9    -0.874903347819E+02   -0.87208E-05   -0.90045E-07    53   0.279E-03    0.976E-04
RMM:  10    -0.874903375196E+02   -0.27376E-05   -0.52756E-07    68   0.241E-03    0.189E-04
RMM:  11    -0.874903412410E+02   -0.37214E-05   -0.36558E-07    57   0.173E-03    0.360E-04
RMM:  12    -0.874903431261E+02   -0.18851E-05   -0.17820E-07    56   0.118E-03    0.301E-04
RMM:  13    -0.874903449377E+02   -0.18116E-05   -0.12315E-07    52   0.118E-03    0.645E-05
RMM:  14    -0.874903453214E+02   -0.38377E-06   -0.18323E-08    48   0.881E-04
  58 F= -.87490345E+02 E0= -.87490345E+02  d E =-.250634E-12
       N       E                     dE             d eps       ncg     rms          rms(c)
DAV:   1    -0.874919872886E+02   -0.16424E-02   -0.37561E-02    88   0.110E+00    0.180E-01
RMM:   2    -0.874908477262E+02    0.11396E-02   -0.23284E-03    84   0.251E-01    0.112E-01
RMM:   3    -0.874902954261E+02    0.55230E-03   -0.23634E-03    93   0.182E-01    0.249E-02
RMM:   4    -0.874902896260E+02    0.58001E-05   -0.40688E-05    95   0.283E-02    0.106E-02
RMM:   5    -0.874902970737E+02   -0.74477E-05   -0.24877E-05    90   0.200E-02    0.670E-03
RMM:   6    -0.874903020017E+02   -0.49279E-05   -0.18135E-05    92   0.160E-02    0.568E-03
RMM:   7    -0.874903137776E+02   -0.11776E-04   -0.35454E-06    71   0.808E-03    0.142E-03
RMM:   8    -0.874903300078E+02   -0.16230E-04   -0.36779E-06    74   0.730E-03    0.370E-03
RMM:   9    -0.874903423259E+02   -0.12318E-04   -0.15509E-06    64   0.439E-03    0.160E-03
RMM:  10    -0.874903504624E+02   -0.81364E-05   -0.17917E-06    69   0.475E-03    0.649E-04
RMM:  11    -0.874903549063E+02   -0.44439E-05   -0.45571E-07    63   0.211E-03    0.630E-04
RMM:  12    -0.874903600915E+02   -0.51852E-05   -0.36706E-07    60   0.180E-03    0.205E-04
RMM:  13    -0.874903621885E+02   -0.20970E-05   -0.17178E-07    55   0.117E-03    0.204E-04
RMM:  14    -0.874903638869E+02   -0.16984E-05   -0.10789E-07    49   0.109E-03    0.144E-04
RMM:  15    -0.874903646849E+02   -0.79793E-06   -0.46603E-08    51   0.991E-04
  59 F= -.87490365E+02 E0= -.87490365E+02  d E =-.285810E-12
       N       E                     dE             d eps       ncg     rms          rms(c)
DAV:   1    -0.874934069949E+02   -0.30431E-02   -0.69020E-02    88   0.151E+00    0.247E-01
RMM:   2    -0.874913010069E+02    0.21060E-02   -0.43171E-03    85   0.343E-01    0.155E-01
RMM:   3    -0.874902723655E+02    0.10286E-02   -0.43476E-03    92   0.249E-01    0.292E-02
RMM:   4    -0.874902669632E+02    0.54023E-05   -0.63245E-05    95   0.347E-02    0.126E-02
RMM:   5    -0.874902776160E+02   -0.10653E-04   -0.26590E-05    92   0.204E-02    0.773E-03
RMM:   6    -0.874902849291E+02   -0.73131E-05   -0.19753E-05    90   0.164E-02    0.570E-03
RMM:   7    -0.874903021803E+02   -0.17251E-04   -0.42819E-06    75   0.834E-03    0.188E-03
RMM:   8    -0.874903283704E+02   -0.26190E-04   -0.43552E-06    71   0.742E-03    0.392E-03
RMM:   9    -0.874903451579E+02   -0.16787E-04   -0.35177E-06    72   0.636E-03    0.596E-04
RMM:  10    -0.874903554494E+02   -0.10291E-04   -0.99702E-07    66   0.356E-03    0.960E-04
RMM:  11    -0.874903618360E+02   -0.63867E-05   -0.49506E-07    60   0.196E-03    0.837E-04
RMM:  12    -0.874903687555E+02   -0.69194E-05   -0.64721E-07    63   0.258E-03    0.313E-04
RMM:  13    -0.874903700224E+02   -0.12669E-05   -0.16855E-07    57   0.115E-03    0.147E-04
RMM:  14    -0.874903724342E+02   -0.24118E-05   -0.15139E-07    52   0.130E-03    0.220E-04
RMM:  15    -0.874903731922E+02   -0.75800E-06   -0.51150E-08    51   0.971E-04
  60 F= -.87490373E+02 E0= -.87490373E+02  d E =-.300624E-12
       N       E                     dE             d eps       ncg     rms          rms(c)
DAV:   1    -0.874909817504E+02   -0.60932E-03   -0.13566E-02    88   0.667E-01    0.111E-01
RMM:   2    -0.874905653389E+02    0.41641E-03   -0.83985E-04    81   0.154E-01    0.673E-02
RMM:   3    -0.874903696648E+02    0.19567E-03   -0.80909E-04    87   0.108E-01    0.120E-02
RMM:   4    -0.874903683320E+02    0.13328E-05   -0.12217E-05    92   0.149E-02    0.550E-03
RMM:   5    -0.874903691309E+02   -0.79888E-06   -0.43692E-06    79   0.827E-03
  61 F= -.87490369E+02 E0= -.87490369E+02  d E =-.265885E-12
       N       E                     dE             d eps       ncg     rms          rms(c)
DAV:   1    -0.874905532016E+02   -0.18487E-03   -0.44738E-03    88   0.383E-01    0.641E-02
RMM:   2    -0.874904282134E+02    0.12499E-03   -0.28604E-04    75   0.896E-02    0.390E-02
RMM:   3    -0.874903794494E+02    0.48764E-04   -0.26664E-04    80   0.619E-02    0.698E-03
RMM:   4    -0.874903802218E+02   -0.77239E-06   -0.42751E-06    84   0.880E-03
  62 F= -.87490380E+02 E0= -.87490380E+02  d E =-.315025E-12
       N       E                     dE             d eps       ncg     rms          rms(c)
DAV:   1    -0.874911871158E+02   -0.80767E-03   -0.18275E-02    84   0.774E-01    0.128E-01
RMM:   2    -0.874906402386E+02    0.54688E-03   -0.11153E-03    80   0.176E-01    0.790E-02
RMM:   3    -0.874903802056E+02    0.26003E-03   -0.10731E-03    88   0.124E-01    0.125E-02
RMM:   4    -0.874903791336E+02    0.10719E-05   -0.13892E-05    92   0.158E-02    0.577E-03
RMM:   5    -0.874903804343E+02   -0.13007E-05   -0.44810E-06    82   0.850E-03    0.329E-03
RMM:   6    -0.874903821659E+02   -0.17316E-05   -0.33604E-06    78   0.691E-03    0.221E-03
RMM:   7    -0.874903857968E+02   -0.36309E-05   -0.72135E-07    63   0.348E-03    0.811E-04
RMM:   8    -0.874903910733E+02   -0.52765E-05   -0.62282E-07    59   0.269E-03    0.109E-03
RMM:   9    -0.874903961967E+02   -0.51234E-05   -0.64525E-07    55   0.239E-03    0.277E-04
RMM:  10    -0.874903992394E+02   -0.30427E-05   -0.39411E-07    63   0.205E-03    0.661E-04
RMM:  11    -0.874904012235E+02   -0.19840E-05   -0.18925E-07    56   0.127E-03    0.262E-04
RMM:  12    -0.874904026686E+02   -0.14452E-05   -0.13842E-07    61   0.127E-03    0.209E-04
RMM:  13    -0.874904036448E+02   -0.97620E-06   -0.18730E-08    43   0.791E-04
  63 F= -.87490404E+02 E0= -.87490404E+02  d E =-.381072E-12
       N       E                     dE             d eps       ncg     rms          rms(c)
DAV:   1    -0.874913069159E+02   -0.90425E-03   -0.20692E-02    88   0.829E-01    0.137E-01
RMM:   2    -0.874906842166E+02    0.62270E-03   -0.12333E-03    78   0.186E-01    0.847E-02
RMM:   3    -0.874903802088E+02    0.30401E-03   -0.12146E-03    89   0.134E-01    0.141E-02
RMM:   4    -0.874903788170E+02    0.13918E-05   -0.16087E-05    94   0.173E-02    0.612E-03
RMM:   5    -0.874903803939E+02   -0.15769E-05   -0.54962E-06    81   0.929E-03    0.358E-03
RMM:   6    -0.874903827796E+02   -0.23857E-05   -0.42992E-06    81   0.774E-03    0.268E-03
RMM:   7    -0.874903875595E+02   -0.47798E-05   -0.93710E-07    62   0.397E-03    0.884E-04
RMM:   8    -0.874903945526E+02   -0.69932E-05   -0.98362E-07    59   0.337E-03    0.146E-03
RMM:   9    -0.874904012113E+02   -0.66587E-05   -0.87770E-07    57   0.286E-03    0.341E-04
RMM:  10    -0.874904044337E+02   -0.32223E-05   -0.45378E-07    65   0.220E-03    0.578E-04
RMM:  11    -0.874904076701E+02   -0.32364E-05   -0.23907E-07    51   0.135E-03    0.252E-04
RMM:  12    -0.874904094988E+02   -0.18287E-05   -0.17289E-07    59   0.135E-03    0.180E-04
RMM:  13    -0.874904107134E+02   -0.12146E-05   -0.56809E-08    48   0.893E-04    0.919E-05
RMM:  14    -0.874904116747E+02   -0.96129E-06   -0.12246E-08    43   0.913E-04
  64 F= -.87490412E+02 E0= -.87490412E+02  d E =-.437171E-12
       N       E                     dE             d eps       ncg     rms          rms(c)
DAV:   1    -0.874926814384E+02   -0.22707E-02   -0.53485E-02    88   0.134E+00    0.220E-01
RMM:   2    -0.874910997823E+02    0.15817E-02   -0.30954E-03    80   0.297E-01    0.135E-01
RMM:   3    -0.874903535067E+02    0.74628E-03   -0.30444E-03    92   0.214E-01    0.237E-02
RMM:   4    -0.874903502928E+02    0.32139E-05   -0.42667E-05    96   0.286E-02    0.993E-03
RMM:   5    -0.874903572150E+02   -0.69222E-05   -0.15850E-05    91   0.153E-02    0.584E-03
RMM:   6    -0.874903643357E+02   -0.71207E-05   -0.12779E-05    88   0.135E-02    0.520E-03
RMM:   7    -0.874903756678E+02   -0.11332E-04   -0.30780E-06    70   0.708E-03    0.141E-03
RMM:   8    -0.874903911013E+02   -0.15433E-04   -0.31933E-06    69   0.615E-03    0.296E-03
RMM:   9    -0.874904024693E+02   -0.11368E-04   -0.20717E-06    62   0.498E-03    0.556E-04
RMM:  10    -0.874904069412E+02   -0.44718E-05   -0.57872E-07    69   0.281E-03    0.512E-04
RMM:  11    -0.874904135166E+02   -0.65754E-05   -0.46244E-07    56   0.193E-03    0.351E-04
RMM:  12    -0.874904164792E+02   -0.29625E-05   -0.26275E-07    56   0.152E-03    0.146E-04
RMM:  13    -0.874904191966E+02   -0.27174E-05   -0.19728E-07    57   0.141E-03    0.928E-05
RMM:  14    -0.874904199907E+02   -0.79411E-06   -0.64911E-08    55   0.986E-04
  65 F= -.87490420E+02 E0= -.87490420E+02  d E =-.385352E-12
       N       E                     dE             d eps       ncg     rms          rms(c)
DAV:   1    -0.874917036199E+02   -0.12844E-02   -0.30046E-02    88   0.995E-01    0.165E-01
RMM:   2    -0.874908105398E+02    0.89308E-03   -0.17296E-03    78   0.221E-01    0.101E-01
RMM:   3    -0.874903940798E+02    0.41646E-03   -0.17517E-03    91   0.161E-01    0.189E-02
RMM:   4    -0.874903908236E+02    0.32562E-05   -0.25187E-05    95   0.221E-02    0.807E-03
RMM:   5    -0.874903946451E+02   -0.38215E-05   -0.11163E-05    88   0.131E-02    0.474E-03
RMM:   6    -0.874903980668E+02   -0.34217E-05   -0.77657E-06    84   0.106E-02    0.392E-03
RMM:   7    -0.874904045383E+02   -0.64715E-05   -0.15170E-06    60   0.522E-03    0.108E-03
RMM:   8    -0.874904121988E+02   -0.76606E-05   -0.19557E-06    61   0.514E-03    0.222E-03
RMM:   9    -0.874904203756E+02   -0.81768E-05   -0.11748E-06    55   0.351E-03    0.728E-04
RMM:  10    -0.874904230466E+02   -0.26710E-05   -0.52657E-07    68   0.256E-03    0.365E-04
RMM:  11    -0.874904272354E+02   -0.41888E-05   -0.30333E-07    54   0.156E-03    0.253E-04
RMM:  12    -0.874904292535E+02   -0.20181E-05   -0.16590E-07    52   0.122E-03    0.141E-04
RMM:  13    -0.874904314818E+02   -0.22283E-05   -0.14040E-07    58   0.126E-03    0.816E-05
RMM:  14    -0.874904318377E+02   -0.35594E-06   -0.98610E-09    48   0.830E-04
  66 F= -.87490432E+02 E0= -.87490432E+02  d E =-.406206E-12
       N       E                     dE             d eps       ncg     rms          rms(c)
DAV:   1    -0.874913524451E+02   -0.92096E-03   -0.21556E-02    88   0.831E-01    0.139E-01
RMM:   2    -0.874907069504E+02    0.64549E-03   -0.12287E-03    77   0.184E-01    0.846E-02
RMM:   3    -0.874904172197E+02    0.28973E-03   -0.12859E-03    91   0.135E-01    0.175E-02
RMM:   4    -0.874904149216E+02    0.22981E-05   -0.20636E-05    95   0.200E-02    0.722E-03
RMM:   5    -0.874904196913E+02   -0.47697E-05   -0.10139E-05    89   0.122E-02    0.431E-03
RMM:   6    -0.874904228846E+02   -0.31933E-05   -0.68926E-06    86   0.991E-03    0.373E-03
RMM:   7    -0.874904280967E+02   -0.52121E-05   -0.12633E-06    60   0.472E-03    0.929E-04
RMM:   8    -0.874904326903E+02   -0.45936E-05   -0.14682E-06    63   0.463E-03    0.181E-03
RMM:   9    -0.874904381952E+02   -0.55049E-05   -0.72540E-07    56   0.270E-03    0.698E-04
RMM:  10    -0.874904397900E+02   -0.15948E-05   -0.32098E-07    66   0.195E-03    0.187E-04
RMM:  11    -0.874904423004E+02   -0.25104E-05   -0.22084E-07    55   0.144E-03    0.183E-04
RMM:  12    -0.874904435863E+02   -0.12859E-05   -0.11316E-07    56   0.109E-03    0.208E-04
RMM:  13    -0.874904450840E+02   -0.14977E-05   -0.52229E-08    44   0.995E-04    0.921E-05
RMM:  14    -0.874904455903E+02   -0.50626E-06   -0.42449E-08    54   0.949E-04
  67 F= -.87490446E+02 E0= -.87490446E+02  d E =-.428543E-12
       N       E                     dE             d eps       ncg     rms          rms(c)
DAV:   1    -0.874928125544E+02   -0.23675E-02   -0.56359E-02    88   0.134E+00    0.223E-01
RMM:   2    -0.874911424218E+02    0.16701E-02   -0.31687E-03    74   0.292E-01    0.136E-01
RMM:   3    -0.874904092463E+02    0.73318E-03   -0.33506E-03    91   0.218E-01    0.292E-02
RMM:   4    -0.874904025690E+02    0.66773E-05   -0.56488E-05    96   0.332E-02    0.112E-02
RMM:   5    -0.874904156918E+02   -0.13123E-04   -0.27268E-05    93   0.199E-02    0.686E-03
RMM:   6    -0.874904230723E+02   -0.73805E-05   -0.19126E-05    87   0.165E-02    0.634E-03
RMM:   7    -0.874904341695E+02   -0.11097E-04   -0.35326E-06    69   0.772E-03    0.148E-03
RMM:   8    -0.874904426104E+02   -0.84408E-05   -0.34197E-06    68   0.708E-03    0.280E-03
RMM:   9    -0.874904510524E+02   -0.84420E-05   -0.13270E-06    56   0.387E-03    0.985E-04
RMM:  10    -0.874904540427E+02   -0.29903E-05   -0.49304E-07    68   0.239E-03    0.388E-04
RMM:  11    -0.874904578240E+02   -0.37813E-05   -0.45449E-07    55   0.204E-03    0.214E-04
RMM:  12    -0.874904598830E+02   -0.20589E-05   -0.25384E-07    63   0.155E-03    0.328E-04
RMM:  13    -0.874904615167E+02   -0.16337E-05   -0.13439E-07    52   0.114E-03    0.178E-04
RMM:  14    -0.874904623572E+02   -0.84045E-06   -0.38675E-08    51   0.102E-03
  68 F= -.87490462E+02 E0= -.87490462E+02  d E =-.344217E-12
       N       E                     dE             d eps       ncg     rms          rms(c)
DAV:   1    -0.874949615880E+02   -0.45001E-02   -0.10572E-01    88   0.185E+00    0.306E-01
RMM:   2    -0.874917905486E+02    0.31710E-02   -0.62398E-03    79   0.414E-01    0.187E-01
RMM:   3    -0.874903625253E+02    0.14280E-02   -0.64034E-03    93   0.301E-01    0.370E-02
RMM:   4    -0.874903597978E+02    0.27275E-05   -0.99693E-05    96   0.440E-02    0.156E-02
RMM:   5    -0.874903866102E+02   -0.26812E-04   -0.41235E-05    92   0.249E-02    0.922E-03
RMM:   6    -0.874904011053E+02   -0.14495E-04   -0.30745E-05    90   0.210E-02    0.787E-03
RMM:   7    -0.874904215734E+02   -0.20468E-04   -0.66841E-06    77   0.104E-02    0.177E-03
RMM:   8    -0.874904408404E+02   -0.19267E-04   -0.60357E-06    75   0.880E-03    0.435E-03
RMM:   9    -0.874904541625E+02   -0.13322E-04   -0.33172E-06    66   0.655E-03    0.851E-04
RMM:  10    -0.874904607871E+02   -0.66246E-05   -0.11335E-06    68   0.399E-03    0.786E-04
RMM:  11    -0.874904665375E+02   -0.57504E-05   -0.55141E-07    56   0.227E-03    0.571E-04
RMM:  12    -0.874904700921E+02   -0.35545E-05   -0.39856E-07    61   0.188E-03    0.166E-04
RMM:  13    -0.874904717939E+02   -0.17018E-05   -0.16145E-07    59   0.119E-03    0.113E-04
RMM:  14    -0.874904735691E+02   -0.17753E-05   -0.98108E-08    55   0.112E-03    0.692E-05
RMM:  15    -0.874904743590E+02   -0.78987E-06   -0.38443E-08    53   0.984E-04
  69 F= -.87490474E+02 E0= -.87490474E+02  d E =-.369996E-12
       N       E                     dE             d eps       ncg     rms          rms(c)
DAV:   1    -0.874905721484E+02   -0.98579E-04   -0.18667E-03    88   0.252E-01    0.424E-02
RMM:   2    -0.874905106128E+02    0.61536E-04   -0.12554E-04    84   0.592E-02    0.261E-02
RMM:   3    -0.874904806963E+02    0.29916E-04   -0.12452E-04    93   0.420E-02    0.462E-03
RMM:   4    -0.874904806042E+02    0.92166E-07   -0.16060E-06    71   0.593E-03
  70 F= -.87490481E+02 E0= -.87490481E+02  d E =-.384371E-12
