 vasp.5.4.4.18Apr17-6-g9f103f2a35 (build Sep 04 2019 18:34:39) complex          
  
 executed on             LinuxIFC date 2019.09.04  17:58:27
 running on   48 total cores
 distrk:  each k-point on   48 cores,    1 groups
 distr:  one band on NCORES_PER_BAND=  12 cores,    4 groups


--------------------------------------------------------------------------------------------------------


 INCAR:
 POTCAR:    PAW_PBE H 15Jun2001                   
 POTCAR:    PAW_PBE O 08Apr2002                   
 POTCAR:    PAW_PBE H 15Jun2001                   
  local pseudopotential read in
  atomic valenz-charges read in
  non local Contribution for L=           0  read in
    real space projection operators read in
  non local Contribution for L=           0  read in
    real space projection operators read in
  non local Contribution for L=           1  read in
    real space projection operators read in
    PAW grid and wavefunctions read in
 
   number of l-projection  operators is LMAX  =           3
   number of lm-projection operators is LMMAX =           5
 
 POTCAR:    PAW_PBE O 08Apr2002                   
  local pseudopotential read in
  partial core-charges read in
  partial kinetic energy density read in
  kinetic energy density of atom read in
  atomic valenz-charges read in
  non local Contribution for L=           0  read in
    real space projection operators read in
  non local Contribution for L=           0  read in
    real space projection operators read in
  non local Contribution for L=           1  read in
    real space projection operators read in
  non local Contribution for L=           1  read in
    real space projection operators read in
    PAW grid and wavefunctions read in
 
   number of l-projection  operators is LMAX  =           4
   number of lm-projection operators is LMMAX =           8
 

 ----------------------------------------------------------------------------- 
|                                                                             |
|  ADVICE TO THIS USER RUNNING 'VASP/VAMP'   (HEAR YOUR MASTER'S VOICE ...):  |
|                                                                             |
|      You have a (more or less) 'large supercell' and for larger cells       |
|      it might be more efficient to use real space projection opertators     |
|      So try LREAL= Auto  in the INCAR   file.                               |
|      Mind:          For very  accurate calculation you might also keep the  |
|      reciprocal projection scheme          (i.e. LREAL=.FALSE.)             |
|                                                                             |
 ----------------------------------------------------------------------------- 

  PAW_PBE H 15Jun2001                   :
 energy of atom  1       EATOM=  -12.4884
 kinetic energy error for atom=    0.0098 (will be added to EATOM!!)
  PAW_PBE O 08Apr2002                   :
 energy of atom  2       EATOM= -432.3788
 kinetic energy error for atom=    0.1156 (will be added to EATOM!!)
 
 
 POSCAR:  H  O                                   
  positions in cartesian coordinates
  No initial velocities read in
 exchange correlation table for  LEXCH =        8
   RHO(1)=    0.500       N(1)  =     2000
   RHO(2)=  100.500       N(2)  =     4000
 


--------------------------------------------------------------------------------------------------------


 ion  position               nearest neighbor table
   1  0.517  0.482  0.425-  13 0.97
   2  0.583  0.517  0.443-  13 0.98
   3  0.510  0.514  0.576-  14 0.97
   4  0.509  0.443  0.552-  14 0.97
   5  0.611  0.489  0.543-  15 0.98
   6  0.682  0.476  0.515-  15 0.96
   7  0.418  0.438  0.478-  16 0.98
   8  0.448  0.371  0.453-  16 0.96
   9  0.320  0.498  0.538-  17 1.13
  10  0.391  0.538  0.506-  17 0.98
  11  0.495  0.570  0.478-  18 0.99
  12  0.470  0.633  0.516-  18 0.96
  13  0.539  0.525  0.421-   1 0.97   2 0.98
  14  0.531  0.472  0.583-   3 0.97   4 0.97
  15  0.644  0.504  0.510-   6 0.96   5 0.98
  16  0.460  0.414  0.470-   8 0.96   7 0.98
  17  0.360  0.501  0.498-  10 0.98   9 1.13
  18  0.467  0.585  0.516-  12 0.96  11 0.99
 
  LATTYP: Found a simple cubic cell.
 ALAT       =    20.0000000000
  
  Lattice vectors:
  
 A1 = (  20.0000000000,   0.0000000000,   0.0000000000)
 A2 = (   0.0000000000,  20.0000000000,   0.0000000000)
 A3 = (   0.0000000000,   0.0000000000,  20.0000000000)


Analysis of symmetry for initial positions (statically):
=====================================================================
 Subroutine PRICEL returns:
 Original cell was already a primitive cell.
 

 Routine SETGRP: Setting up the symmetry group for a 
 simple cubic supercell.


 Subroutine GETGRP returns: Found  1 space group operations
 (whereof  1 operations were pure point group operations)
 out of a pool of 48 trial point group operations.


The static configuration has the point symmetry C_1 .


Analysis of symmetry for dynamics (positions and initial velocities):
=====================================================================
 Subroutine PRICEL returns:
 Original cell was already a primitive cell.
 

 Routine SETGRP: Setting up the symmetry group for a 
 simple cubic supercell.


 Subroutine GETGRP returns: Found  1 space group operations
 (whereof  1 operations were pure point group operations)
 out of a pool of 48 trial point group operations.


The dynamic configuration has the point symmetry C_1 .


 Subroutine INISYM returns: Found  1 space group operations
 (whereof  1 operations are pure point group operations),
 and found     1 'primitive' translations

 
 
 KPOINTS: Monkhorst-Pack                          

Automatic generation of k-mesh.
Space group operators:
 irot       det(A)        alpha          n_x          n_y          n_z        tau_x        tau_y        tau_z
    1     1.000000     0.000000     1.000000     0.000000     0.000000     0.000000     0.000000     0.000000
 
 Subroutine IBZKPT returns following result:
 ===========================================
 
 Found      1 irreducible k-points:
 
 Following reciprocal coordinates:
            Coordinates               Weight
  0.000000  0.000000  0.000000      1.000000
 
 Following cartesian coordinates:
            Coordinates               Weight
  0.000000  0.000000  0.000000      1.000000
 


--------------------------------------------------------------------------------------------------------




 Dimension of arrays:
   k-points           NKPTS =      1   k-points in BZ     NKDIM =      1   number of bands    NBANDS=     36
   number of dos      NEDOS =    301   number of ions     NIONS =     18
   non local maximal  LDIM  =      4   non local SUM 2l+1 LMDIM =      8
   total plane-waves  NPLWV = 941192
   max r-space proj   IRMAX =      1   max aug-charges    IRDMAX=   1030
   dimension x,y,z NGX =    98 NGY =   98 NGZ =   98
   dimension x,y,z NGXF=   160 NGYF=  160 NGZF=  160
   support grid    NGXF=   160 NGYF=  160 NGZF=  160
   ions per type =              12   6
   NGX,Y,Z   is equivalent  to a cutoff of   8.15,  8.15,  8.15 a.u.
   NGXF,Y,Z  is equivalent  to a cutoff of  13.30, 13.30, 13.30 a.u.

 SYSTEM =  VaspCalc                                
 POSCAR =   H  O                                   

 Startparameter for this run:
   NWRITE =      1    write-flag & timer
   PREC   = med       normal or accurate (medium, high low for compatibility)
   ISTART =      0    job   : 0-new  1-cont  2-samecut
   ICHARG =      2    charge: 1-file 2-atom 10-const
   ISPIN  =      1    spin polarized calculation?
   LNONCOLLINEAR =      F non collinear calculations
   LSORBIT =      F    spin-orbit coupling
   INIWAV =      1    electr: 0-lowe 1-rand  2-diag
   LASPH  =      F    aspherical Exc in radial PAW
   METAGGA=      F    non-selfconsistent MetaGGA calc.

 Electronic Relaxation 1
   ENCUT  =  400.0 eV  29.40 Ry    5.42 a.u.  32.61 32.61 32.61*2*pi/ulx,y,z
   ENINI  =  400.0     initial cutoff
   ENAUG  =  605.4 eV  augmentation charge cutoff
   NELM   =    400;   NELMIN=  4; NELMDL=  0     # of ELM steps 
   EDIFF  = 0.1E-05   stopping-criterion for ELM
   LREAL  =      F    real-space projection
   NLSPLINE    = F    spline interpolate recip. space projectors
   LCOMPAT=      F    compatible to vasp.4.4
   GGA_COMPAT  = T    GGA compatible to vasp.4.4-vasp.4.6
   LMAXPAW     = -100 max onsite density
   LMAXMIX     =    2 max onsite mixed and CHGCAR
   VOSKOWN=      0    Vosko Wilk Nusair interpolation
   ROPT   =    0.00000   0.00000
 Ionic relaxation
   EDIFFG = 0.1E-04   stopping-criterion for IOM
   NSW    =    100    number of steps for IOM
   NBLOCK =      1;   KBLOCK =    100    inner block; outer block 
   IBRION =     -1    ionic relax: 0-MD 1-quasi-New 2-CG
   NFREE  =      0    steps in history (QN), initial steepest desc. (CG)
   ISIF   =      2    stress and relaxation
   IWAVPR =     10    prediction:  0-non 1-charg 2-wave 3-comb
   ISYM   =      2    0-nonsym 1-usesym 2-fastsym
   LCORR  =      T    Harris-Foulkes like correction to forces

   POTIM  = 0.5000    time-step for ionic-motion
   TEIN   =    0.0    initial temperature
   TEBEG  =    0.0;   TEEND  =   0.0 temperature during run
   SMASS  =  -3.00    Nose mass-parameter (am)
   estimated Nose-frequenzy (Omega)   =  0.10E-29 period in steps =****** mass=  -0.914E-26a.u.
   SCALEE = 1.0000    scale energy and forces
   NPACO  =    256;   APACO  = 16.0  distance and # of slots for P.C.
   PSTRESS=    0.0 pullay stress

  Mass of Ions in am
   POMASS =   1.00 16.00
  Ionic Valenz
   ZVAL   =   1.00  6.00
  Atomic Wigner-Seitz radii
   RWIGS  =  -1.00 -1.00
  virtual crystal weights 
   VCA    =   1.00  1.00
   NELECT =      48.0000    total number of electrons
   NUPDOWN=      -1.0000    fix difference up-down

 DOS related values:
   EMIN   =  10.00;   EMAX   =-10.00  energy-range for DOS
   EFERMI =   0.00
   ISMEAR =     0;   SIGMA  =   0.10  broadening in eV -4-tet -1-fermi 0-gaus

 Electronic relaxation 2 (details)
   IALGO  =     68    algorithm
   LDIAG  =      T    sub-space diagonalisation (order eigenvalues)
   LSUBROT=      F    optimize rotation matrix (better conditioning)
   TURBO    =      0    0=normal 1=particle mesh
   IRESTART =      0    0=no restart 2=restart with 2 vectors
   NREBOOT  =      0    no. of reboots
   NMIN     =      0    reboot dimension
   EREF     =   0.00    reference energy to select bands
   IMIX   =      4    mixing-type and parameters
     AMIX     =   0.40;   BMIX     =  1.00
     AMIX_MAG =   1.60;   BMIX_MAG =  1.00
     AMIN     =   0.10
     WC   =   100.;   INIMIX=   1;  MIXPRE=   1;  MAXMIX= -45

 Intra band minimization:
   WEIMIN = 0.0000     energy-eigenvalue tresh-hold
   EBREAK =  0.69E-08  absolut break condition
   DEPER  =   0.30     relativ break condition  

   TIME   =   0.40     timestep for ELM

  volume/ion in A,a.u.               =     444.44      2999.26
  Fermi-wavevector in a.u.,A,eV,Ry     =   0.297481  0.562157  1.204043  0.088495
  Thomas-Fermi vector in A             =   1.163009
 
 Write flags
   LWAVE        =      F    write WAVECAR
   LDOWNSAMPLE  =      F    k-point downsampling of WAVECAR
   LCHARG       =      F    write CHGCAR
   LVTOT        =      F    write LOCPOT, total local potential
   LVHAR        =      F    write LOCPOT, Hartree potential only
   LELF         =      F    write electronic localiz. function (ELF)
   LORBIT       =     11    0 simple, 1 ext, 2 COOP (PROOUT), +10 PAW based schemes


 Dipole corrections
   LMONO  =      F    monopole corrections only (constant potential shift)
   LDIPOL =      T    correct potential (dipole corrections)
   IDIPOL =      4    1-x, 2-y, 3-z, 4-all directions 
   EPSILON=  1.0000000 bulk dielectric constant

 Exchange correlation treatment:
   GGA     =    --    GGA type
   LEXCH   =     8    internal setting for exchange type
   VOSKOWN=      0    Vosko Wilk Nusair interpolation
   LHFCALC =     F    Hartree Fock is set to
   LHFONE  =     F    Hartree Fock one center treatment
   AEXX    =    0.0000 exact exchange contribution

 Linear response parameters
   LEPSILON=     F    determine dielectric tensor
   LRPA    =     F    only Hartree local field effects (RPA)
   LNABLA  =     F    use nabla operator in PAW spheres
   LVEL    =     F    velocity operator in full k-point grid
   LINTERFAST=   F  fast interpolation
   KINTER  =     0    interpolate to denser k-point grid
   CSHIFT  =0.1000    complex shift for real part using Kramers Kronig
   OMEGAMAX=  -1.0    maximum frequency
   DEG_THRESHOLD= 0.2000000E-02 threshold for treating states as degnerate
   RTIME   =   -0.100 relaxation time in fs
  (WPLASMAI=    0.000 imaginary part of plasma frequency in eV, 0.658/RTIME)
   DFIELD  = 0.0000000 0.0000000 0.0000000 field for delta impulse in time
 
 Orbital magnetization related:
   ORBITALMAG=     F  switch on orbital magnetization
   LCHIMAG   =     F  perturbation theory with respect to B field
   DQ        =  0.001000  dq finite difference perturbation B field
   LLRAUG    =     F  two centre corrections for induced B field



--------------------------------------------------------------------------------------------------------


 Static calculation
 charge density and potential will be updated during run
 non-spin polarized calculation
 RMM-DIIS sequential band-by-band and
  variant of blocked Davidson during initial phase
 perform sub-space diagonalisation
    before iterative eigenvector-optimisation
 modified Broyden-mixing scheme, WC =      100.0
 initial mixing is a Kerker type mixing with AMIX =  0.4000 and BMIX =      1.0000
 Hartree-type preconditioning will be used
 using additional bands           12
 reciprocal scheme for non local part
 use partial core corrections
 calculate Harris-corrections to forces 
   (improved forces if not selfconsistent)
 use gradient corrections 
 use of overlap-Matrix (Vanderbilt PP)
 Gauss-broadening in eV      SIGMA  =   0.10


--------------------------------------------------------------------------------------------------------


  energy-cutoff  :      400.00
  volume of cell :     8000.00
      direct lattice vectors                 reciprocal lattice vectors
    20.000000000  0.000000000  0.000000000     0.050000000  0.000000000  0.000000000
     0.000000000 20.000000000  0.000000000     0.000000000  0.050000000  0.000000000
     0.000000000  0.000000000 20.000000000     0.000000000  0.000000000  0.050000000

  length of vectors
    20.000000000 20.000000000 20.000000000     0.050000000  0.050000000  0.050000000


 
 k-points in units of 2pi/SCALE and weight: Monkhorst-Pack                          
   0.00000000  0.00000000  0.00000000       1.000
 
 k-points in reciprocal lattice and weights: Monkhorst-Pack                          
   0.00000000  0.00000000  0.00000000       1.000
 
 position of ions in fractional coordinates (direct lattice) 
   0.51696044  0.48231771  0.42450384
   0.58250409  0.51749296  0.44267829
   0.50958844  0.51448731  0.57599144
   0.50881759  0.44253796  0.55194014
   0.61067104  0.48867021  0.54297044
   0.68202664  0.47599011  0.51539879
   0.41832169  0.43807436  0.47809879
   0.44818364  0.37077486  0.45331244
   0.32000000  0.49750456  0.53770659
   0.39097829  0.53815556  0.50631739
   0.49542619  0.56961846  0.47781379
   0.47029514  0.63315261  0.51581875
   0.53931234  0.52526726  0.42129739
   0.53148534  0.47185586  0.58328284
   0.64368714  0.50445581  0.51036774
   0.46046439  0.41406651  0.47018254
   0.36007474  0.50112251  0.49787849
   0.46704339  0.58519926  0.51557024
 
 position of ions in cartesian coordinates  (Angst):
  10.33920878  9.64635415  8.49007673
  11.65008178 10.34985915  8.85356573
  10.19176878 10.28974615 11.51982873
  10.17635178  8.85075915 11.03880273
  12.21342078  9.77340415 10.85940873
  13.64053278  9.51980215 10.30797573
   8.36643378  8.76148715  9.56197573
   8.96367278  7.41549715  9.06624873
   6.40000000  9.95009115 10.75413173
   7.81956578 10.76311115 10.12634773
   9.90852378 11.39236915  9.55627573
   9.40590278 12.66305215 10.31637491
  10.78624678 10.50534515  8.42594773
  10.62970678  9.43711715 11.66565673
  12.87374278 10.08911615 10.20735473
   9.20928778  8.28133015  9.40365073
   7.20149478 10.02245015  9.95756973
   9.34086778 11.70398515 10.31140473
 


--------------------------------------------------------------------------------------------------------


 k-point  1 :   0.0000 0.0000 0.0000  plane waves:  145165

 maximum and minimum number of plane-waves per node :     12106    12090

 maximum number of plane-waves:    145165
 maximum index in each direction: 
   IXMAX=   32   IYMAX=   32   IZMAX=   32
   IXMIN=  -32   IYMIN=  -32   IZMIN=  -32


 parallel 3D FFT for wavefunctions:
    minimum data exchange during FFTs selected (reduces bandwidth)
 parallel 3D FFT for charge:
    minimum data exchange during FFTs selected (reduces bandwidth)


 total amount of memory used by VASP MPI-rank0    52198. kBytes
=======================================================================

   base      :      30000. kBytes
   nonl-proj :       5035. kBytes
   fftplans  :       6155. kBytes
   grid      :       9257. kBytes
   one-center:          6. kBytes
   wavefun   :       1745. kBytes
 
     INWAV:  cpu time    0.0000: real time    0.0000
 Broyden mixing: mesh for mixing (old mesh)
   NGX = 65   NGY = 65   NGZ = 65
  (NGX  =160   NGY  =160   NGZ  =160)
  gives a total of 274625 points

 initial charge density was supplied:
 charge density of overlapping atoms calculated
 number of electron      48.0000000 magnetization 
 keeping initial charge density in first step


--------------------------------------------------------------------------------------------------------


 Maximum index for augmentation-charges           43 (set IRDMAX)


--------------------------------------------------------------------------------------------------------


 First call to EWALD:  gamma=   0.089
 Maximum number of real-space cells 3x 3x 3
 Maximum number of reciprocal cells 3x 3x 3

    FEWALD:  cpu time    0.0025: real time    0.0025


--------------------------------------- Iteration      1(   1)  ---------------------------------------


    POTLOK:  cpu time    0.0948: real time    0.0997
    SETDIJ:  cpu time    0.0016: real time    0.0016
     EDDAV:  cpu time    0.4298: real time    0.4300
       DOS:  cpu time    0.0005: real time    0.0005
    --------------------------------------------
      LOOP:  cpu time    0.5267: real time    0.5318

 eigenvalue-minimisations  :    88
 total energy-change (2. order) : 0.5174021E+03  (-0.8583608E+03)
 number of electron      48.0000000 magnetization 
 augmentation part       48.0000000 magnetization 

 DIPCOR: dipole corrections for dipol
 direction  1 min pos     1, direction  2 min pos     1, direction  3 min pos     1,
 dipolmoment           0.000003      0.000001     -0.000001 electrons x Angstroem
 Tr[quadrupol]        26.408037

 energy correction for charged system         0.000000 eV
 dipol+quadrupol energy correction           -0.000000 eV
 added-field ion interaction          0.000000 eV  (added to PSCEN)


 Free energy of the ion-electron system (eV)
  ---------------------------------------------------
  alpha Z        PSCENC =         1.00913064
  Ewald energy   TEWEN  =      3088.91719270
  -Hartree energ DENC   =     -5244.53645835
  -exchange      EXHF   =         0.00000000
  -V(xc)+E(xc)   XCENC  =       195.01756129
  PAW double counting   =      2104.90519057    -2115.80374798
  entropy T*S    EENTRO =        -0.11486492
  eigenvalues    EBANDS =      -255.31467205
  atomic energy  EATOM  =      2743.32276819
  Solvation  Ediel_sol  =         0.00000000
  ---------------------------------------------------
  free energy    TOTEN  =       517.40210010 eV

  energy without entropy =      517.51696502  energy(sigma->0) =      517.45953256


--------------------------------------------------------------------------------------------------------




--------------------------------------- Iteration      1(   2)  ---------------------------------------


     EDDAV:  cpu time    0.5583: real time    0.5589
       DOS:  cpu time    0.0006: real time    0.0006
    --------------------------------------------
      LOOP:  cpu time    0.5589: real time    0.5595

 eigenvalue-minimisations  :   128
 total energy-change (2. order) :-0.2894787E+03  (-0.2752168E+03)
 number of electron      48.0000000 magnetization 
 augmentation part       48.0000000 magnetization 

 DIPCOR: dipole corrections for dipol
 direction  1 min pos     1, direction  2 min pos     1, direction  3 min pos     1,
 dipolmoment           0.000003      0.000001     -0.000001 electrons x Angstroem
 Tr[quadrupol]        26.408037

 energy correction for charged system         0.000000 eV
 dipol+quadrupol energy correction           -0.000000 eV
 added-field ion interaction          0.000000 eV  (added to PSCEN)


 Free energy of the ion-electron system (eV)
  ---------------------------------------------------
  alpha Z        PSCENC =         1.00913064
  Ewald energy   TEWEN  =      3088.91719270
  -Hartree energ DENC   =     -5244.53645835
  -exchange      EXHF   =         0.00000000
  -V(xc)+E(xc)   XCENC  =       195.01756129
  PAW double counting   =      2104.90519057    -2115.80374798
  entropy T*S    EENTRO =        -0.01425526
  eigenvalues    EBANDS =      -544.89395628
  atomic energy  EATOM  =      2743.32276819
  Solvation  Ediel_sol  =         0.00000000
  ---------------------------------------------------
  free energy    TOTEN  =       227.92342553 eV

  energy without entropy =      227.93768079  energy(sigma->0) =      227.93055316


--------------------------------------------------------------------------------------------------------




--------------------------------------- Iteration      1(   3)  ---------------------------------------


     EDDAV:  cpu time    0.5515: real time    0.5522
       DOS:  cpu time    0.0003: real time    0.0003
    --------------------------------------------
      LOOP:  cpu time    0.5518: real time    0.5526

 eigenvalue-minimisations  :   120
 total energy-change (2. order) :-0.2677931E+03  (-0.2635918E+03)
 number of electron      48.0000000 magnetization 
 augmentation part       48.0000000 magnetization 

 DIPCOR: dipole corrections for dipol
 direction  1 min pos     1, direction  2 min pos     1, direction  3 min pos     1,
 dipolmoment           0.000003      0.000001     -0.000001 electrons x Angstroem
 Tr[quadrupol]        26.408037

 energy correction for charged system         0.000000 eV
 dipol+quadrupol energy correction           -0.000000 eV
 added-field ion interaction          0.000000 eV  (added to PSCEN)


 Free energy of the ion-electron system (eV)
  ---------------------------------------------------
  alpha Z        PSCENC =         1.00913064
  Ewald energy   TEWEN  =      3088.91719270
  -Hartree energ DENC   =     -5244.53645835
  -exchange      EXHF   =         0.00000000
  -V(xc)+E(xc)   XCENC  =       195.01756129
  PAW double counting   =      2104.90519057    -2115.80374798
  entropy T*S    EENTRO =        -0.00000000
  eigenvalues    EBANDS =      -812.70133471
  atomic energy  EATOM  =      2743.32276819
  Solvation  Ediel_sol  =         0.00000000
  ---------------------------------------------------
  free energy    TOTEN  =       -39.86969764 eV

  energy without entropy =      -39.86969764  energy(sigma->0) =      -39.86969764


--------------------------------------------------------------------------------------------------------




--------------------------------------- Iteration      1(   4)  ---------------------------------------


     EDDAV:  cpu time    0.4765: real time    0.4768
       DOS:  cpu time    0.0003: real time    0.0003
    --------------------------------------------
      LOOP:  cpu time    0.4768: real time    0.4771

 eigenvalue-minimisations  :    84
 total energy-change (2. order) :-0.5570738E+02  (-0.5559249E+02)
 number of electron      48.0000000 magnetization 
 augmentation part       48.0000000 magnetization 

 DIPCOR: dipole corrections for dipol
 direction  1 min pos     1, direction  2 min pos     1, direction  3 min pos     1,
 dipolmoment           0.000003      0.000001     -0.000001 electrons x Angstroem
 Tr[quadrupol]        26.408037

 energy correction for charged system         0.000000 eV
 dipol+quadrupol energy correction           -0.000000 eV
 added-field ion interaction          0.000000 eV  (added to PSCEN)


 Free energy of the ion-electron system (eV)
  ---------------------------------------------------
  alpha Z        PSCENC =         1.00913064
  Ewald energy   TEWEN  =      3088.91719270
  -Hartree energ DENC   =     -5244.53645835
  -exchange      EXHF   =         0.00000000
  -V(xc)+E(xc)   XCENC  =       195.01756129
  PAW double counting   =      2104.90519057    -2115.80374798
  entropy T*S    EENTRO =        -0.00000000
  eigenvalues    EBANDS =      -868.40871502
  atomic energy  EATOM  =      2743.32276819
  Solvation  Ediel_sol  =         0.00000000
  ---------------------------------------------------
  free energy    TOTEN  =       -95.57707796 eV

  energy without entropy =      -95.57707796  energy(sigma->0) =      -95.57707796


--------------------------------------------------------------------------------------------------------




--------------------------------------- Iteration      1(   5)  ---------------------------------------


     EDDAV:  cpu time    0.4183: real time    0.4186
       DOS:  cpu time    0.0006: real time    0.0006
    CHARGE:  cpu time    0.0275: real time    0.0275
    MIXING:  cpu time    0.0026: real time    0.0026
    --------------------------------------------
      LOOP:  cpu time    0.4490: real time    0.4493

 eigenvalue-minimisations  :    88
 total energy-change (2. order) :-0.1125669E+01  (-0.1125249E+01)
 number of electron      48.0000301 magnetization 
 augmentation part        4.9143386 magnetization 

 DIPCOR: dipole corrections for dipol
 direction  1 min pos     1, direction  2 min pos     1, direction  3 min pos     1,
 dipolmoment           0.000003      0.000001     -0.000001 electrons x Angstroem
 Tr[quadrupol]        26.408037

 energy correction for charged system         0.000000 eV
 dipol+quadrupol energy correction           -0.000000 eV
 added-field ion interaction          0.000000 eV  (added to PSCEN)


 Broyden mixing:
  rms(total) = 0.18209E+01    rms(broyden)= 0.18173E+01
  rms(prec ) = 0.19804E+01
  weight for this iteration     100.00

 Free energy of the ion-electron system (eV)
  ---------------------------------------------------
  alpha Z        PSCENC =         1.00913064
  Ewald energy   TEWEN  =      3088.91719270
  -Hartree energ DENC   =     -5244.53645835
  -exchange      EXHF   =         0.00000000
  -V(xc)+E(xc)   XCENC  =       195.01756129
  PAW double counting   =      2104.90519057    -2115.80374798
  entropy T*S    EENTRO =        -0.00000000
  eigenvalues    EBANDS =      -869.53438360
  atomic energy  EATOM  =      2743.32276819
  Solvation  Ediel_sol  =         0.00000000
  ---------------------------------------------------
  free energy    TOTEN  =       -96.70274653 eV

  energy without entropy =      -96.70274653  energy(sigma->0) =      -96.70274653


--------------------------------------------------------------------------------------------------------




--------------------------------------- Iteration      1(   6)  ---------------------------------------


    POTLOK:  cpu time    0.0776: real time    0.0778
    SETDIJ:  cpu time    0.0015: real time    0.0015
    EDDIAG:  cpu time    0.0710: real time    0.0710
  RMM-DIIS:  cpu time    0.4084: real time    0.4087
    ORTHCH:  cpu time    0.0123: real time    0.0123
       DOS:  cpu time    0.0003: real time    0.0003
    CHARGE:  cpu time    0.0264: real time    0.0265
    MIXING:  cpu time    0.0029: real time    0.0029
    --------------------------------------------
      LOOP:  cpu time    0.6006: real time    0.6012

 eigenvalue-minimisations  :    96
 total energy-change (2. order) : 0.9150556E+01  (-0.3573330E+01)
 number of electron      48.0000257 magnetization 
 augmentation part        4.2809203 magnetization 

 DIPCOR: dipole corrections for dipol
 direction  1 min pos     1, direction  2 min pos     1, direction  3 min pos     1,
 dipolmoment           0.070263      0.046156     -0.036199 electrons x Angstroem
 Tr[quadrupol]        24.798555

 energy correction for charged system         0.000000 eV
 dipol+quadrupol energy correction           -0.000032 eV
 added-field ion interaction          0.000570 eV  (added to PSCEN)


 Broyden mixing:
  rms(total) = 0.71343E+00    rms(broyden)= 0.71255E+00
  rms(prec ) = 0.75157E+00
  weight for this iteration     100.00

 eigenvalues of (default mixing * dielectric matrix)
  average eigenvalue GAMMA=   1.0186
  1.0186

 Free energy of the ion-electron system (eV)
  ---------------------------------------------------
  alpha Z        PSCENC =         1.00966911
  Ewald energy   TEWEN  =      3088.91719270
  -Hartree energ DENC   =     -5373.92508917
  -exchange      EXHF   =         0.00000000
  -V(xc)+E(xc)   XCENC  =       202.19702267
  PAW double counting   =      2681.74961374    -2694.58529735
  entropy T*S    EENTRO =        -0.00000000
  eigenvalues    EBANDS =      -736.23807048
  atomic energy  EATOM  =      2743.32276819
  Solvation  Ediel_sol  =         0.00000000
  ---------------------------------------------------
  free energy    TOTEN  =       -87.55219058 eV

  energy without entropy =      -87.55219058  energy(sigma->0) =      -87.55219058


--------------------------------------------------------------------------------------------------------




--------------------------------------- Iteration      1(   7)  ---------------------------------------


    POTLOK:  cpu time    0.0783: real time    0.0784
    SETDIJ:  cpu time    0.0016: real time    0.0016
    EDDIAG:  cpu time    0.0702: real time    0.0702
  RMM-DIIS:  cpu time    0.4074: real time    0.4076
    ORTHCH:  cpu time    0.0125: real time    0.0125
       DOS:  cpu time    0.0004: real time    0.0004
    CHARGE:  cpu time    0.0267: real time    0.0267
    MIXING:  cpu time    0.0033: real time    0.0033
    --------------------------------------------
      LOOP:  cpu time    0.6004: real time    0.6008

 eigenvalue-minimisations  :    96
 total energy-change (2. order) : 0.3762266E+00  (-0.1905733E+00)
 number of electron      48.0000251 magnetization 
 augmentation part        4.1802975 magnetization 

 DIPCOR: dipole corrections for dipol
 direction  1 min pos     1, direction  2 min pos     1, direction  3 min pos     1,
 dipolmoment           0.119319      0.074521     -0.053445 electrons x Angstroem
 Tr[quadrupol]        23.782374

 energy correction for charged system         0.000000 eV
 dipol+quadrupol energy correction           -0.000085 eV
 added-field ion interaction          0.000940 eV  (added to PSCEN)


 Broyden mixing:
  rms(total) = 0.46026E+00    rms(broyden)= 0.46013E+00
  rms(prec ) = 0.48238E+00
  weight for this iteration     100.00

 eigenvalues of (default mixing * dielectric matrix)
  average eigenvalue GAMMA=   1.7302
  1.1923  2.2680

 Free energy of the ion-electron system (eV)
  ---------------------------------------------------
  alpha Z        PSCENC =         1.00998505
  Ewald energy   TEWEN  =      3088.91719270
  -Hartree energ DENC   =     -5404.93219799
  -exchange      EXHF   =         0.00000000
  -V(xc)+E(xc)   XCENC  =       203.69404218
  PAW double counting   =      2997.24037642    -3010.11131338
  entropy T*S    EENTRO =        -0.00000000
  eigenvalues    EBANDS =      -706.31681714
  atomic energy  EATOM  =      2743.32276819
  Solvation  Ediel_sol  =         0.00000000
  ---------------------------------------------------
  free energy    TOTEN  =       -87.17596396 eV

  energy without entropy =      -87.17596396  energy(sigma->0) =      -87.17596396


--------------------------------------------------------------------------------------------------------




--------------------------------------- Iteration      1(   8)  ---------------------------------------


    POTLOK:  cpu time    0.0783: real time    0.0786
    SETDIJ:  cpu time    0.0015: real time    0.0015
    EDDIAG:  cpu time    0.0699: real time    0.0699
  RMM-DIIS:  cpu time    0.4080: real time    0.4082
    ORTHCH:  cpu time    0.0127: real time    0.0127
       DOS:  cpu time    0.0003: real time    0.0003
    CHARGE:  cpu time    0.0262: real time    0.0262
    MIXING:  cpu time    0.0034: real time    0.0034
    --------------------------------------------
      LOOP:  cpu time    0.6005: real time    0.6009

 eigenvalue-minimisations  :    96
 total energy-change (2. order) : 0.2498670E+00  (-0.5081929E-01)
 number of electron      48.0000252 magnetization 
 augmentation part        4.2077081 magnetization 

 DIPCOR: dipole corrections for dipol
 direction  1 min pos     1, direction  2 min pos     1, direction  3 min pos     1,
 dipolmoment           0.207603      0.122680     -0.081105 electrons x Angstroem
 Tr[quadrupol]        22.001807

 energy correction for charged system         0.000000 eV
 dipol+quadrupol energy correction           -0.000244 eV
 added-field ion interaction          0.001590 eV  (added to PSCEN)


 Broyden mixing:
  rms(total) = 0.73038E-01    rms(broyden)= 0.72993E-01
  rms(prec ) = 0.93066E-01
  weight for this iteration     100.00

 eigenvalues of (default mixing * dielectric matrix)
  average eigenvalue GAMMA=   1.5924
  2.4687  1.1543  1.1543

 Free energy of the ion-electron system (eV)
  ---------------------------------------------------
  alpha Z        PSCENC =         1.01047621
  Ewald energy   TEWEN  =      3088.91719270
  -Hartree energ DENC   =     -5427.72552857
  -exchange      EXHF   =         0.00000000
  -V(xc)+E(xc)   XCENC  =       204.57175495
  PAW double counting   =      3379.64214039    -3392.17660436
  entropy T*S    EENTRO =        -0.00000000
  eigenvalues    EBANDS =      -684.48829653
  atomic energy  EATOM  =      2743.32276819
  Solvation  Ediel_sol  =         0.00000000
  ---------------------------------------------------
  free energy    TOTEN  =       -86.92609700 eV

  energy without entropy =      -86.92609700  energy(sigma->0) =      -86.92609700


--------------------------------------------------------------------------------------------------------




--------------------------------------- Iteration      1(   9)  ---------------------------------------


    POTLOK:  cpu time    0.0804: real time    0.0806
    SETDIJ:  cpu time    0.0019: real time    0.0020
    EDDIAG:  cpu time    0.0748: real time    0.0748
  RMM-DIIS:  cpu time    0.4177: real time    0.4178
    ORTHCH:  cpu time    0.0126: real time    0.0126
       DOS:  cpu time    0.0003: real time    0.0003
    CHARGE:  cpu time    0.0272: real time    0.0272
    MIXING:  cpu time    0.0035: real time    0.0035
    --------------------------------------------
      LOOP:  cpu time    0.6183: real time    0.6187

 eigenvalue-minimisations  :    96
 total energy-change (2. order) : 0.3309598E-01  (-0.1735149E-01)
 number of electron      48.0000250 magnetization 
 augmentation part        4.1717549 magnetization 

 DIPCOR: dipole corrections for dipol
 direction  1 min pos     1, direction  2 min pos     1, direction  3 min pos     1,
 dipolmoment           0.242141      0.141621     -0.092249 electrons x Angstroem
 Tr[quadrupol]        21.265225

 energy correction for charged system         0.000000 eV
 dipol+quadrupol energy correction           -0.000329 eV
 added-field ion interaction          0.001845 eV  (added to PSCEN)


 Broyden mixing:
  rms(total) = 0.36536E-01    rms(broyden)= 0.36448E-01
  rms(prec ) = 0.51203E-01
  weight for this iteration     100.00

 eigenvalues of (default mixing * dielectric matrix)
  average eigenvalue GAMMA=   1.6698
  1.0467  1.0467  2.2929  2.2929

 Free energy of the ion-electron system (eV)
  ---------------------------------------------------
  alpha Z        PSCENC =         1.01064669
  Ewald energy   TEWEN  =      3088.91719270
  -Hartree energ DENC   =     -5440.67232915
  -exchange      EXHF   =         0.00000000
  -V(xc)+E(xc)   XCENC  =       205.11894528
  PAW double counting   =      3412.43311904    -3425.06396372
  entropy T*S    EENTRO =        -0.00000000
  eigenvalues    EBANDS =      -671.95938006
  atomic energy  EATOM  =      2743.32276819
  Solvation  Ediel_sol  =         0.00000000
  ---------------------------------------------------
  free energy    TOTEN  =       -86.89300103 eV

  energy without entropy =      -86.89300103  energy(sigma->0) =      -86.89300103


--------------------------------------------------------------------------------------------------------




--------------------------------------- Iteration      1(  10)  ---------------------------------------


    POTLOK:  cpu time    0.0791: real time    0.0794
    SETDIJ:  cpu time    0.0015: real time    0.0015
    EDDIAG:  cpu time    0.0704: real time    0.0706
  RMM-DIIS:  cpu time    0.4088: real time    0.4089
    ORTHCH:  cpu time    0.0130: real time    0.0130
       DOS:  cpu time    0.0003: real time    0.0003
    CHARGE:  cpu time    0.0263: real time    0.0264
    MIXING:  cpu time    0.0039: real time    0.0039
    --------------------------------------------
      LOOP:  cpu time    0.6034: real time    0.6040

 eigenvalue-minimisations  :    92
 total energy-change (2. order) : 0.3638626E-02  (-0.1750900E-02)
 number of electron      48.0000250 magnetization 
 augmentation part        4.1703126 magnetization 

 DIPCOR: dipole corrections for dipol
 direction  1 min pos     1, direction  2 min pos     1, direction  3 min pos     1,
 dipolmoment           0.293046      0.168694     -0.105924 electrons x Angstroem
 Tr[quadrupol]        20.148850

 energy correction for charged system         0.000000 eV
 dipol+quadrupol energy correction           -0.000473 eV
 added-field ion interaction          0.002213 eV  (added to PSCEN)


 Broyden mixing:
  rms(total) = 0.18401E-01    rms(broyden)= 0.18391E-01
  rms(prec ) = 0.28124E-01
  weight for this iteration     100.00

 eigenvalues of (default mixing * dielectric matrix)
  average eigenvalue GAMMA=   1.7390
  3.0131  2.4380  1.0846  1.0846  1.0747

 Free energy of the ion-electron system (eV)
  ---------------------------------------------------
  alpha Z        PSCENC =         1.01086994
  Ewald energy   TEWEN  =      3088.91719270
  -Hartree energ DENC   =     -5446.44789162
  -exchange      EXHF   =         0.00000000
  -V(xc)+E(xc)   XCENC  =       205.10418510
  PAW double counting   =      3370.62257021    -3383.21993268
  entropy T*S    EENTRO =        -0.00000000
  eigenvalues    EBANDS =      -666.19912423
  atomic energy  EATOM  =      2743.32276819
  Solvation  Ediel_sol  =         0.00000000
  ---------------------------------------------------
  free energy    TOTEN  =       -86.88936240 eV

  energy without entropy =      -86.88936240  energy(sigma->0) =      -86.88936240


--------------------------------------------------------------------------------------------------------




--------------------------------------- Iteration      1(  11)  ---------------------------------------


    POTLOK:  cpu time    0.0803: real time    0.0806
    SETDIJ:  cpu time    0.0015: real time    0.0015
    EDDIAG:  cpu time    0.0705: real time    0.0705
  RMM-DIIS:  cpu time    0.4062: real time    0.4064
    ORTHCH:  cpu time    0.0124: real time    0.0124
       DOS:  cpu time    0.0003: real time    0.0003
    CHARGE:  cpu time    0.0263: real time    0.0263
    MIXING:  cpu time    0.0041: real time    0.0041
    --------------------------------------------
      LOOP:  cpu time    0.6016: real time    0.6021

 eigenvalue-minimisations  :    92
 total energy-change (2. order) :-0.1099853E-02  (-0.7756062E-03)
 number of electron      48.0000250 magnetization 
 augmentation part        4.1726987 magnetization 

 DIPCOR: dipole corrections for dipol
 direction  1 min pos     1, direction  2 min pos     1, direction  3 min pos     1,
 dipolmoment           0.323158      0.184755     -0.114175 electrons x Angstroem
 Tr[quadrupol]        19.429476

 energy correction for charged system         0.000000 eV
 dipol+quadrupol energy correction           -0.000572 eV
 added-field ion interaction          0.002431 eV  (added to PSCEN)


 Broyden mixing:
  rms(total) = 0.95795E-02    rms(broyden)= 0.95691E-02
  rms(prec ) = 0.16881E-01
  weight for this iteration     100.00

 eigenvalues of (default mixing * dielectric matrix)
  average eigenvalue GAMMA=   1.9953
  4.2378  2.4408  2.1036  0.9863  1.1017  1.1017

 Free energy of the ion-electron system (eV)
  ---------------------------------------------------
  alpha Z        PSCENC =         1.01098981
  Ewald energy   TEWEN  =      3088.91719270
  -Hartree energ DENC   =     -5450.31607497
  -exchange      EXHF   =         0.00000000
  -V(xc)+E(xc)   XCENC  =       205.13408860
  PAW double counting   =      3372.98065560    -3385.55368151
  entropy T*S    EENTRO =        -0.00000000
  eigenvalues    EBANDS =      -662.38640067
  atomic energy  EATOM  =      2743.32276819
  Solvation  Ediel_sol  =         0.00000000
  ---------------------------------------------------
  free energy    TOTEN  =       -86.89046225 eV

  energy without entropy =      -86.89046225  energy(sigma->0) =      -86.89046225


--------------------------------------------------------------------------------------------------------




--------------------------------------- Iteration      1(  12)  ---------------------------------------


    POTLOK:  cpu time    0.0811: real time    0.0815
    SETDIJ:  cpu time    0.0015: real time    0.0015
    EDDIAG:  cpu time    0.0702: real time    0.0702
  RMM-DIIS:  cpu time    0.3960: real time    0.3962
    ORTHCH:  cpu time    0.0122: real time    0.0122
       DOS:  cpu time    0.0004: real time    0.0004
    CHARGE:  cpu time    0.0268: real time    0.0268
    MIXING:  cpu time    0.0043: real time    0.0043
    --------------------------------------------
      LOOP:  cpu time    0.5925: real time    0.5931

 eigenvalue-minimisations  :    90
 total energy-change (2. order) :-0.1405226E-01  (-0.1025600E-02)
 number of electron      48.0000250 magnetization 
 augmentation part        4.1674616 magnetization 

 DIPCOR: dipole corrections for dipol
 direction  1 min pos     1, direction  2 min pos     1, direction  3 min pos     1,
 dipolmoment           0.358665      0.204014     -0.124132 electrons x Angstroem
 Tr[quadrupol]        18.399639

 energy correction for charged system         0.000000 eV
 dipol+quadrupol energy correction           -0.000700 eV
 added-field ion interaction          0.002689 eV  (added to PSCEN)


 Broyden mixing:
  rms(total) = 0.82608E-02    rms(broyden)= 0.82486E-02
  rms(prec ) = 0.10655E-01
  weight for this iteration     100.00

 eigenvalues of (default mixing * dielectric matrix)
  average eigenvalue GAMMA=   2.0304
  4.6044  2.7570  2.4302  1.2748  0.9997  1.0732  1.0732

 Free energy of the ion-electron system (eV)
  ---------------------------------------------------
  alpha Z        PSCENC =         1.01111993
  Ewald energy   TEWEN  =      3088.91719270
  -Hartree energ DENC   =     -5455.58618450
  -exchange      EXHF   =         0.00000000
  -V(xc)+E(xc)   XCENC  =       205.19487897
  PAW double counting   =      3374.94004960    -3387.52277605
  entropy T*S    EENTRO =        -0.00000000
  eigenvalues    EBANDS =      -657.18156334
  atomic energy  EATOM  =      2743.32276819
  Solvation  Ediel_sol  =         0.00000000
  ---------------------------------------------------
  free energy    TOTEN  =       -86.90451451 eV

  energy without entropy =      -86.90451451  energy(sigma->0) =      -86.90451451


--------------------------------------------------------------------------------------------------------




--------------------------------------- Iteration      1(  13)  ---------------------------------------


    POTLOK:  cpu time    0.0809: real time    0.0811
    SETDIJ:  cpu time    0.0015: real time    0.0015
    EDDIAG:  cpu time    0.0704: real time    0.0706
  RMM-DIIS:  cpu time    0.3898: real time    0.3912
    ORTHCH:  cpu time    0.0122: real time    0.0122
       DOS:  cpu time    0.0005: real time    0.0005
    CHARGE:  cpu time    0.0267: real time    0.0267
    MIXING:  cpu time    0.0045: real time    0.0045
    --------------------------------------------
      LOOP:  cpu time    0.5867: real time    0.5883

 eigenvalue-minimisations  :    90
 total energy-change (2. order) :-0.7104557E-02  (-0.2649048E-03)
 number of electron      48.0000250 magnetization 
 augmentation part        4.1703833 magnetization 

 DIPCOR: dipole corrections for dipol
 direction  1 min pos     1, direction  2 min pos     1, direction  3 min pos     1,
 dipolmoment           0.367312      0.208700     -0.126194 electrons x Angstroem
 Tr[quadrupol]        18.036802

 energy correction for charged system         0.000000 eV
 dipol+quadrupol energy correction           -0.000733 eV
 added-field ion interaction          0.002751 eV  (added to PSCEN)


 Broyden mixing:
  rms(total) = 0.34937E-02    rms(broyden)= 0.34881E-02
  rms(prec ) = 0.52587E-02
  weight for this iteration     100.00

 eigenvalues of (default mixing * dielectric matrix)
  average eigenvalue GAMMA=   2.1182
  5.5958  3.0387  2.4062  1.8325  1.0936  1.0936  1.0130  0.8719

 Free energy of the ion-electron system (eV)
  ---------------------------------------------------
  alpha Z        PSCENC =         1.01114921
  Ewald energy   TEWEN  =      3088.91719270
  -Hartree energ DENC   =     -5455.82010889
  -exchange      EXHF   =         0.00000000
  -V(xc)+E(xc)   XCENC  =       205.14661208
  PAW double counting   =      3375.49593535    -3388.06511804
  entropy T*S    EENTRO =        -0.00000000
  eigenvalues    EBANDS =      -656.92004966
  atomic energy  EATOM  =      2743.32276819
  Solvation  Ediel_sol  =         0.00000000
  ---------------------------------------------------
  free energy    TOTEN  =       -86.91161907 eV

  energy without entropy =      -86.91161907  energy(sigma->0) =      -86.91161907


--------------------------------------------------------------------------------------------------------




--------------------------------------- Iteration      1(  14)  ---------------------------------------


    POTLOK:  cpu time    0.0811: real time    0.0812
    SETDIJ:  cpu time    0.0015: real time    0.0015
    EDDIAG:  cpu time    0.0703: real time    0.0706
  RMM-DIIS:  cpu time    0.3922: real time    0.3925
    ORTHCH:  cpu time    0.0124: real time    0.0124
       DOS:  cpu time    0.0003: real time    0.0003
    CHARGE:  cpu time    0.0264: real time    0.0264
    MIXING:  cpu time    0.0047: real time    0.0047
    --------------------------------------------
      LOOP:  cpu time    0.5889: real time    0.5897

 eigenvalue-minimisations  :    89
 total energy-change (2. order) :-0.5137697E-02  (-0.7605171E-04)
 number of electron      48.0000250 magnetization 
 augmentation part        4.1710840 magnetization 

 DIPCOR: dipole corrections for dipol
 direction  1 min pos     1, direction  2 min pos     1, direction  3 min pos     1,
 dipolmoment           0.372335      0.211427     -0.127381 electrons x Angstroem
 Tr[quadrupol]        17.769977

 energy correction for charged system         0.000000 eV
 dipol+quadrupol energy correction           -0.000752 eV
 added-field ion interaction          0.002788 eV  (added to PSCEN)


 Broyden mixing:
  rms(total) = 0.44225E-02    rms(broyden)= 0.44217E-02
  rms(prec ) = 0.52275E-02
  weight for this iteration     100.00

 eigenvalues of (default mixing * dielectric matrix)
  average eigenvalue GAMMA=   2.1839
  6.2004  3.4371  2.4930  2.1868  1.2307  1.0617  1.0617  0.9920  0.9920

 Free energy of the ion-electron system (eV)
  ---------------------------------------------------
  alpha Z        PSCENC =         1.01116586
  Ewald energy   TEWEN  =      3088.91719270
  -Hartree energ DENC   =     -5456.22045978
  -exchange      EXHF   =         0.00000000
  -V(xc)+E(xc)   XCENC  =       205.13626110
  PAW double counting   =      3375.48036796    -3388.04733930
  entropy T*S    EENTRO =        -0.00000000
  eigenvalues    EBANDS =      -656.51671349
  atomic energy  EATOM  =      2743.32276819
  Solvation  Ediel_sol  =         0.00000000
  ---------------------------------------------------
  free energy    TOTEN  =       -86.91675676 eV

  energy without entropy =      -86.91675676  energy(sigma->0) =      -86.91675676


--------------------------------------------------------------------------------------------------------




--------------------------------------- Iteration      1(  15)  ---------------------------------------


    POTLOK:  cpu time    0.0808: real time    0.0810
    SETDIJ:  cpu time    0.0015: real time    0.0015
    EDDIAG:  cpu time    0.0714: real time    0.0716
  RMM-DIIS:  cpu time    0.4029: real time    0.4032
    ORTHCH:  cpu time    0.0126: real time    0.0126
       DOS:  cpu time    0.0003: real time    0.0003
    CHARGE:  cpu time    0.0267: real time    0.0267
    MIXING:  cpu time    0.0051: real time    0.0051
    --------------------------------------------
      LOOP:  cpu time    0.6013: real time    0.6021

 eigenvalue-minimisations  :    89
 total energy-change (2. order) :-0.2882586E-02  (-0.9160746E-04)
 number of electron      48.0000250 magnetization 
 augmentation part        4.1688930 magnetization 

 DIPCOR: dipole corrections for dipol
 direction  1 min pos     1, direction  2 min pos     1, direction  3 min pos     1,
 dipolmoment           0.375494      0.213126     -0.128264 electrons x Angstroem
 Tr[quadrupol]        17.589882

 energy correction for charged system         0.000000 eV
 dipol+quadrupol energy correction           -0.000765 eV
 added-field ion interaction          0.002811 eV  (added to PSCEN)


 Broyden mixing:
  rms(total) = 0.19236E-02    rms(broyden)= 0.19194E-02
  rms(prec ) = 0.24430E-02
  weight for this iteration     100.00

 eigenvalues of (default mixing * dielectric matrix)
  average eigenvalue GAMMA=   2.3310
  7.1547  4.0231  2.5116  2.1537  2.1537  1.0550  1.0550  1.1946  0.9456  1.0624

 Free energy of the ion-electron system (eV)
  ---------------------------------------------------
  alpha Z        PSCENC =         1.01117634
  Ewald energy   TEWEN  =      3088.91719270
  -Hartree energ DENC   =     -5456.85540297
  -exchange      EXHF   =         0.00000000
  -V(xc)+E(xc)   XCENC  =       205.15612782
  PAW double counting   =      3376.14367753    -3388.71726100
  entropy T*S    EENTRO =        -0.00000000
  eigenvalues    EBANDS =      -655.89791796
  atomic energy  EATOM  =      2743.32276819
  Solvation  Ediel_sol  =         0.00000000
  ---------------------------------------------------
  free energy    TOTEN  =       -86.91963935 eV

  energy without entropy =      -86.91963935  energy(sigma->0) =      -86.91963935


--------------------------------------------------------------------------------------------------------




--------------------------------------- Iteration      1(  16)  ---------------------------------------


    POTLOK:  cpu time    0.0817: real time    0.0820
    SETDIJ:  cpu time    0.0015: real time    0.0015
    EDDIAG:  cpu time    0.0707: real time    0.0709
  RMM-DIIS:  cpu time    0.3909: real time    0.3912
    ORTHCH:  cpu time    0.0123: real time    0.0123
       DOS:  cpu time    0.0005: real time    0.0005
    CHARGE:  cpu time    0.0268: real time    0.0268
    MIXING:  cpu time    0.0052: real time    0.0052
    --------------------------------------------
      LOOP:  cpu time    0.5896: real time    0.5904

 eigenvalue-minimisations  :    87
 total energy-change (2. order) :-0.1689531E-02  (-0.2991137E-04)
 number of electron      48.0000250 magnetization 
 augmentation part        4.1695517 magnetization 

 DIPCOR: dipole corrections for dipol
 direction  1 min pos     1, direction  2 min pos     1, direction  3 min pos     1,
 dipolmoment           0.377829      0.214290     -0.128898 electrons x Angstroem
 Tr[quadrupol]        17.459974

 energy correction for charged system         0.000000 eV
 dipol+quadrupol energy correction           -0.000774 eV
 added-field ion interaction          0.002827 eV  (added to PSCEN)


 Broyden mixing:
  rms(total) = 0.84821E-03    rms(broyden)= 0.84773E-03
  rms(prec ) = 0.11069E-02
  weight for this iteration     100.00

 eigenvalues of (default mixing * dielectric matrix)
  average eigenvalue GAMMA=   2.3469
  7.5150  4.5753  2.8741  2.4877  1.9989  0.9365  1.0197  1.1388  1.1388  1.0656
  1.0656

 Free energy of the ion-electron system (eV)
  ---------------------------------------------------
  alpha Z        PSCENC =         1.01118388
  Ewald energy   TEWEN  =      3088.91719270
  -Hartree energ DENC   =     -5456.71196832
  -exchange      EXHF   =         0.00000000
  -V(xc)+E(xc)   XCENC  =       205.14143280
  PAW double counting   =      3375.34814386    -3387.91849086
  entropy T*S    EENTRO =        -0.00000000
  eigenvalues    EBANDS =      -656.03159113
  atomic energy  EATOM  =      2743.32276819
  Solvation  Ediel_sol  =         0.00000000
  ---------------------------------------------------
  free energy    TOTEN  =       -86.92132888 eV

  energy without entropy =      -86.92132888  energy(sigma->0) =      -86.92132888


--------------------------------------------------------------------------------------------------------




--------------------------------------- Iteration      1(  17)  ---------------------------------------


    POTLOK:  cpu time    0.0800: real time    0.0803
    SETDIJ:  cpu time    0.0016: real time    0.0016
    EDDIAG:  cpu time    0.0709: real time    0.0711
  RMM-DIIS:  cpu time    0.4306: real time    0.4310
    ORTHCH:  cpu time    0.0124: real time    0.0124
       DOS:  cpu time    0.0003: real time    0.0003
    CHARGE:  cpu time    0.0266: real time    0.0266
    MIXING:  cpu time    0.0057: real time    0.0057
    --------------------------------------------
      LOOP:  cpu time    0.6281: real time    0.6290

 eigenvalue-minimisations  :    94
 total energy-change (2. order) :-0.4484989E-03  (-0.8298640E-05)
 number of electron      48.0000250 magnetization 
 augmentation part        4.1690192 magnetization 

 DIPCOR: dipole corrections for dipol
 direction  1 min pos     1, direction  2 min pos     1, direction  3 min pos     1,
 dipolmoment           0.379428      0.215142     -0.129383 electrons x Angstroem
 Tr[quadrupol]        17.407252

 energy correction for charged system         0.000000 eV
 dipol+quadrupol energy correction           -0.000780 eV
 added-field ion interaction          0.002839 eV  (added to PSCEN)


 Broyden mixing:
  rms(total) = 0.10260E-02    rms(broyden)= 0.10255E-02
  rms(prec ) = 0.11734E-02
  weight for this iteration     100.00

 eigenvalues of (default mixing * dielectric matrix)
  average eigenvalue GAMMA=   2.3302
  7.7027  5.0215  2.9481  2.4279  2.0038  1.4216  1.4216  1.0636  1.0636  0.9312
  0.9785  0.9785

 Free energy of the ion-electron system (eV)
  ---------------------------------------------------
  alpha Z        PSCENC =         1.01118914
  Ewald energy   TEWEN  =      3088.91719270
  -Hartree energ DENC   =     -5456.86945868
  -exchange      EXHF   =         0.00000000
  -V(xc)+E(xc)   XCENC  =       205.14720932
  PAW double counting   =      3375.08682068    -3387.65907328
  entropy T*S    EENTRO =        -0.00000000
  eigenvalues    EBANDS =      -655.87842546
  atomic energy  EATOM  =      2743.32276819
  Solvation  Ediel_sol  =         0.00000000
  ---------------------------------------------------
  free energy    TOTEN  =       -86.92177738 eV

  energy without entropy =      -86.92177738  energy(sigma->0) =      -86.92177738


--------------------------------------------------------------------------------------------------------




--------------------------------------- Iteration      1(  18)  ---------------------------------------


    POTLOK:  cpu time    0.0826: real time    0.0829
    SETDIJ:  cpu time    0.0016: real time    0.0016
    EDDIAG:  cpu time    0.0720: real time    0.0721
  RMM-DIIS:  cpu time    0.4169: real time    0.4171
    ORTHCH:  cpu time    0.0125: real time    0.0125
       DOS:  cpu time    0.0004: real time    0.0004
    CHARGE:  cpu time    0.0271: real time    0.0271
    MIXING:  cpu time    0.0063: real time    0.0063
    --------------------------------------------
      LOOP:  cpu time    0.6192: real time    0.6198

 eigenvalue-minimisations  :    92
 total energy-change (2. order) :-0.2832492E-03  (-0.1976403E-05)
 number of electron      48.0000250 magnetization 
 augmentation part        4.1692637 magnetization 

 DIPCOR: dipole corrections for dipol
 direction  1 min pos     1, direction  2 min pos     1, direction  3 min pos     1,
 dipolmoment           0.380919      0.215974     -0.129833 electrons x Angstroem
 Tr[quadrupol]        17.374768

 energy correction for charged system         0.000000 eV
 dipol+quadrupol energy correction           -0.000786 eV
 added-field ion interaction          0.002850 eV  (added to PSCEN)


 Broyden mixing:
  rms(total) = 0.32779E-03    rms(broyden)= 0.32753E-03
  rms(prec ) = 0.43042E-03
  weight for this iteration     100.00

 eigenvalues of (default mixing * dielectric matrix)
  average eigenvalue GAMMA=   2.3687
  8.0172  5.3757  3.1276  2.4579  2.4579  1.8298  1.1950  0.9711  0.9711  1.0597
  1.0597  1.1350  1.1350

 Free energy of the ion-electron system (eV)
  ---------------------------------------------------
  alpha Z        PSCENC =         1.01119407
  Ewald energy   TEWEN  =      3088.91719270
  -Hartree energ DENC   =     -5456.82102578
  -exchange      EXHF   =         0.00000000
  -V(xc)+E(xc)   XCENC  =       205.14341864
  PAW double counting   =      3375.17975688    -3387.75099454
  entropy T*S    EENTRO =        -0.00000000
  eigenvalues    EBANDS =      -655.92437079
  atomic energy  EATOM  =      2743.32276819
  Solvation  Ediel_sol  =         0.00000000
  ---------------------------------------------------
  free energy    TOTEN  =       -86.92206063 eV

  energy without entropy =      -86.92206063  energy(sigma->0) =      -86.92206063


--------------------------------------------------------------------------------------------------------




--------------------------------------- Iteration      1(  19)  ---------------------------------------


    POTLOK:  cpu time    0.0814: real time    0.0816
    SETDIJ:  cpu time    0.0015: real time    0.0015
    EDDIAG:  cpu time    0.0708: real time    0.0708
  RMM-DIIS:  cpu time    0.3767: real time    0.3768
    ORTHCH:  cpu time    0.0127: real time    0.0127
       DOS:  cpu time    0.0004: real time    0.0004
    CHARGE:  cpu time    0.0264: real time    0.0266
    MIXING:  cpu time    0.0062: real time    0.0062
    --------------------------------------------
      LOOP:  cpu time    0.5759: real time    0.5764

 eigenvalue-minimisations  :    89
 total energy-change (2. order) :-0.1609425E-03  (-0.1046897E-05)
 number of electron      48.0000250 magnetization 
 augmentation part        4.1694851 magnetization 

 DIPCOR: dipole corrections for dipol
 direction  1 min pos     1, direction  2 min pos     1, direction  3 min pos     1,
 dipolmoment           0.382295      0.216783     -0.130274 electrons x Angstroem
 Tr[quadrupol]        17.351761

 energy correction for charged system         0.000000 eV
 dipol+quadrupol energy correction           -0.000792 eV
 added-field ion interaction          0.002860 eV  (added to PSCEN)


 Broyden mixing:
  rms(total) = 0.39360E-03    rms(broyden)= 0.39326E-03
  rms(prec ) = 0.44192E-03
  weight for this iteration     100.00

 eigenvalues of (default mixing * dielectric matrix)
  average eigenvalue GAMMA=   2.3759
  8.3670  5.8417  3.4245  2.7392  2.4645  1.9442  1.1767  1.1767  1.0146  0.9358
  1.0445  1.0445  1.0442  1.0442

 Free energy of the ion-electron system (eV)
  ---------------------------------------------------
  alpha Z        PSCENC =         1.01119868
  Ewald energy   TEWEN  =      3088.91719270
  -Hartree energ DENC   =     -5456.79905221
  -exchange      EXHF   =         0.00000000
  -V(xc)+E(xc)   XCENC  =       205.14098787
  PAW double counting   =      3375.15735958    -3387.72806185
  entropy T*S    EENTRO =        -0.00000000
  eigenvalues    EBANDS =      -655.94461452
  atomic energy  EATOM  =      2743.32276819
  Solvation  Ediel_sol  =         0.00000000
  ---------------------------------------------------
  free energy    TOTEN  =       -86.92222157 eV

  energy without entropy =      -86.92222157  energy(sigma->0) =      -86.92222157


--------------------------------------------------------------------------------------------------------




--------------------------------------- Iteration      1(  20)  ---------------------------------------


    POTLOK:  cpu time    0.0825: real time    0.0826
    SETDIJ:  cpu time    0.0015: real time    0.0015
    EDDIAG:  cpu time    0.0708: real time    0.0708
  RMM-DIIS:  cpu time    0.3159: real time    0.3159
    ORTHCH:  cpu time    0.0126: real time    0.0127
       DOS:  cpu time    0.0003: real time    0.0003
    CHARGE:  cpu time    0.0267: real time    0.0267
    MIXING:  cpu time    0.0072: real time    0.0072
    --------------------------------------------
      LOOP:  cpu time    0.5175: real time    0.5178

 eigenvalue-minimisations  :    71
 total energy-change (2. order) :-0.5665488E-04  (-0.1221070E-06)
 number of electron      48.0000250 magnetization 
 augmentation part        4.1694597 magnetization 

 DIPCOR: dipole corrections for dipol
 direction  1 min pos     1, direction  2 min pos     1, direction  3 min pos     1,
 dipolmoment           0.383029      0.217254     -0.130529 electrons x Angstroem
 Tr[quadrupol]        17.341617

 energy correction for charged system         0.000000 eV
 dipol+quadrupol energy correction           -0.000795 eV
 added-field ion interaction          0.002866 eV  (added to PSCEN)


 Broyden mixing:
  rms(total) = 0.24537E-03    rms(broyden)= 0.24537E-03
  rms(prec ) = 0.27777E-03
  weight for this iteration     100.00

 eigenvalues of (default mixing * dielectric matrix)
  average eigenvalue GAMMA=   2.4823
  8.8612  6.2621  4.1979  2.7950  2.4473  2.4473  1.6767  1.3273  1.0792  1.0792
  1.0772  1.0772  0.9614  0.9730  0.9730

 Free energy of the ion-electron system (eV)
  ---------------------------------------------------
  alpha Z        PSCENC =         1.01120120
  Ewald energy   TEWEN  =      3088.91719270
  -Hartree energ DENC   =     -5456.81364750
  -exchange      EXHF   =         0.00000000
  -V(xc)+E(xc)   XCENC  =       205.14151853
  PAW double counting   =      3375.20010289    -3387.77106259
  entropy T*S    EENTRO =        -0.00000000
  eigenvalues    EBANDS =      -655.93035164
  atomic energy  EATOM  =      2743.32276819
  Solvation  Ediel_sol  =         0.00000000
  ---------------------------------------------------
  free energy    TOTEN  =       -86.92227822 eV

  energy without entropy =      -86.92227822  energy(sigma->0) =      -86.92227822


--------------------------------------------------------------------------------------------------------




--------------------------------------- Iteration      1(  21)  ---------------------------------------


    POTLOK:  cpu time    0.0831: real time    0.0832
    SETDIJ:  cpu time    0.0017: real time    0.0017
    EDDIAG:  cpu time    0.0706: real time    0.0707
  RMM-DIIS:  cpu time    0.3251: real time    0.3252
    ORTHCH:  cpu time    0.0125: real time    0.0125
       DOS:  cpu time    0.0003: real time    0.0003
    CHARGE:  cpu time    0.0267: real time    0.0267
    MIXING:  cpu time    0.0070: real time    0.0070
    --------------------------------------------
      LOOP:  cpu time    0.5270: real time    0.5273

 eigenvalue-minimisations  :    68
 total energy-change (2. order) :-0.4421786E-04  (-0.2498143E-06)
 number of electron      48.0000250 magnetization 
 augmentation part        4.1693583 magnetization 

 DIPCOR: dipole corrections for dipol
 direction  1 min pos     1, direction  2 min pos     1, direction  3 min pos     1,
 dipolmoment           0.383941      0.217895     -0.130871 electrons x Angstroem
 Tr[quadrupol]        17.332559

 energy correction for charged system         0.000000 eV
 dipol+quadrupol energy correction           -0.000799 eV
 added-field ion interaction          0.002873 eV  (added to PSCEN)


 Broyden mixing:
  rms(total) = 0.10193E-03    rms(broyden)= 0.10170E-03
  rms(prec ) = 0.11520E-03
  weight for this iteration     100.00

 eigenvalues of (default mixing * dielectric matrix)
  average eigenvalue GAMMA=   2.4495
  9.0152  6.4388  4.3949  2.9105  2.3965  2.3965  1.6277  1.6277  1.0960  1.0960
  0.9601  0.9601  1.0797  1.0797  1.0561  1.0561

 Free energy of the ion-electron system (eV)
  ---------------------------------------------------
  alpha Z        PSCENC =         1.01120442
  Ewald energy   TEWEN  =      3088.91719270
  -Hartree energ DENC   =     -5456.84170772
  -exchange      EXHF   =         0.00000000
  -V(xc)+E(xc)   XCENC  =       205.14266622
  PAW double counting   =      3375.22487511    -3387.79617172
  entropy T*S    EENTRO =        -0.00000000
  eigenvalues    EBANDS =      -655.90314965
  atomic energy  EATOM  =      2743.32276819
  Solvation  Ediel_sol  =         0.00000000
  ---------------------------------------------------
  free energy    TOTEN  =       -86.92232244 eV

  energy without entropy =      -86.92232244  energy(sigma->0) =      -86.92232244


--------------------------------------------------------------------------------------------------------




--------------------------------------- Iteration      1(  22)  ---------------------------------------


    POTLOK:  cpu time    0.0833: real time    0.0836
    SETDIJ:  cpu time    0.0015: real time    0.0015
    EDDIAG:  cpu time    0.0711: real time    0.0711
  RMM-DIIS:  cpu time    0.3142: real time    0.3144
    ORTHCH:  cpu time    0.0122: real time    0.0122
       DOS:  cpu time    0.0005: real time    0.0005
    CHARGE:  cpu time    0.0266: real time    0.0266
    MIXING:  cpu time    0.0072: real time    0.0072
    --------------------------------------------
      LOOP:  cpu time    0.5168: real time    0.5173

 eigenvalue-minimisations  :    70
 total energy-change (2. order) :-0.8591389E-05  (-0.4172895E-07)
 number of electron      48.0000250 magnetization 
 augmentation part        4.1693650 magnetization 

 DIPCOR: dipole corrections for dipol
 direction  1 min pos     1, direction  2 min pos     1, direction  3 min pos     1,
 dipolmoment           0.384195      0.218098     -0.130977 electrons x Angstroem
 Tr[quadrupol]        17.330563

 energy correction for charged system         0.000000 eV
 dipol+quadrupol energy correction           -0.000800 eV
 added-field ion interaction          0.002875 eV  (added to PSCEN)


 Broyden mixing:
  rms(total) = 0.38625E-04    rms(broyden)= 0.38576E-04
  rms(prec ) = 0.48756E-04
  weight for this iteration     100.00

 eigenvalues of (default mixing * dielectric matrix)
  average eigenvalue GAMMA=   2.4517
  9.1573  6.5939  4.6705  3.0688  2.5607  2.2791  2.2791  1.4674  1.4674  1.0732
  1.0732  1.0738  1.0738  0.9463  0.9463  1.0196  0.9280

 Free energy of the ion-electron system (eV)
  ---------------------------------------------------
  alpha Z        PSCENC =         1.01120536
  Ewald energy   TEWEN  =      3088.91719270
  -Hartree energ DENC   =     -5456.83580065
  -exchange      EXHF   =         0.00000000
  -V(xc)+E(xc)   XCENC  =       205.14230516
  PAW double counting   =      3375.21799008    -3387.78919851
  entropy T*S    EENTRO =        -0.00000000
  eigenvalues    EBANDS =      -655.90879336
  atomic energy  EATOM  =      2743.32276819
  Solvation  Ediel_sol  =         0.00000000
  ---------------------------------------------------
  free energy    TOTEN  =       -86.92233103 eV

  energy without entropy =      -86.92233103  energy(sigma->0) =      -86.92233103


--------------------------------------------------------------------------------------------------------




--------------------------------------- Iteration      1(  23)  ---------------------------------------


    POTLOK:  cpu time    0.0836: real time    0.0837
    SETDIJ:  cpu time    0.0015: real time    0.0015
    EDDIAG:  cpu time    0.0707: real time    0.0707
  RMM-DIIS:  cpu time    0.3016: real time    0.3020
    ORTHCH:  cpu time    0.0123: real time    0.0123
       DOS:  cpu time    0.0004: real time    0.0004
    CHARGE:  cpu time    0.0270: real time    0.0270
    MIXING:  cpu time    0.0076: real time    0.0076
    --------------------------------------------
      LOOP:  cpu time    0.5046: real time    0.5052

 eigenvalue-minimisations  :    58
 total energy-change (2. order) :-0.5680650E-05  (-0.1282002E-07)
 number of electron      48.0000250 magnetization 
 augmentation part        4.1693602 magnetization 

 DIPCOR: dipole corrections for dipol
 direction  1 min pos     1, direction  2 min pos     1, direction  3 min pos     1,
 dipolmoment           0.384405      0.218279     -0.131071 electrons x Angstroem
 Tr[quadrupol]        17.329001

 energy correction for charged system         0.000000 eV
 dipol+quadrupol energy correction           -0.000801 eV
 added-field ion interaction          0.002877 eV  (added to PSCEN)


 Broyden mixing:
  rms(total) = 0.48226E-04    rms(broyden)= 0.48214E-04
  rms(prec ) = 0.54324E-04
  weight for this iteration     100.00

 eigenvalues of (default mixing * dielectric matrix)
  average eigenvalue GAMMA=   2.4665
  9.2580  6.9171  4.8567  3.4100  2.7009  2.3935  2.3935  1.5801  1.5801  1.0824
  1.0824  1.0469  1.0469  1.0806  1.0806  0.9580  0.9643  0.9643

 Free energy of the ion-electron system (eV)
  ---------------------------------------------------
  alpha Z        PSCENC =         1.01120616
  Ewald energy   TEWEN  =      3088.91719270
  -Hartree energ DENC   =     -5456.83754879
  -exchange      EXHF   =         0.00000000
  -V(xc)+E(xc)   XCENC  =       205.14240530
  PAW double counting   =      3375.22679781    -3387.79803115
  entropy T*S    EENTRO =        -0.00000000
  eigenvalues    EBANDS =      -655.90712694
  atomic energy  EATOM  =      2743.32276819
  Solvation  Ediel_sol  =         0.00000000
  ---------------------------------------------------
  free energy    TOTEN  =       -86.92233671 eV

  energy without entropy =      -86.92233671  energy(sigma->0) =      -86.92233671


--------------------------------------------------------------------------------------------------------




--------------------------------------- Iteration      1(  24)  ---------------------------------------


    POTLOK:  cpu time    0.0834: real time    0.0835
    SETDIJ:  cpu time    0.0017: real time    0.0017
    EDDIAG:  cpu time    0.0705: real time    0.0705
  RMM-DIIS:  cpu time    0.2597: real time    0.2598
    ORTHCH:  cpu time    0.0121: real time    0.0121
       DOS:  cpu time    0.0006: real time    0.0006
    CHARGE:  cpu time    0.0266: real time    0.0266
    MIXING:  cpu time    0.0081: real time    0.0081
    --------------------------------------------
      LOOP:  cpu time    0.4626: real time    0.4629

 eigenvalue-minimisations  :    48
 total energy-change (2. order) :-0.2903579E-05  (-0.5566859E-08)
 number of electron      48.0000250 magnetization 
 augmentation part        4.1693590 magnetization 

 DIPCOR: dipole corrections for dipol
 direction  1 min pos     1, direction  2 min pos     1, direction  3 min pos     1,
 dipolmoment           0.384534      0.218403     -0.131134 electrons x Angstroem
 Tr[quadrupol]        17.327969

 energy correction for charged system         0.000000 eV
 dipol+quadrupol energy correction           -0.000802 eV
 added-field ion interaction          0.002878 eV  (added to PSCEN)


 Broyden mixing:
  rms(total) = 0.20358E-04    rms(broyden)= 0.20336E-04
  rms(prec ) = 0.23992E-04
  weight for this iteration     100.00

 eigenvalues of (default mixing * dielectric matrix)
  average eigenvalue GAMMA=   2.4007
  9.2753  6.9768  4.8931  3.4511  2.6929  2.4726  1.9601  1.9601  1.1483  1.1483
  1.2405  1.2405  1.2654  1.0633  1.0633  0.9938  0.9457  0.9457  0.8770

 Free energy of the ion-electron system (eV)
  ---------------------------------------------------
  alpha Z        PSCENC =         1.01120668
  Ewald energy   TEWEN  =      3088.91719270
  -Hartree energ DENC   =     -5456.83720488
  -exchange      EXHF   =         0.00000000
  -V(xc)+E(xc)   XCENC  =       205.14240012
  PAW double counting   =      3375.21766028    -3387.78888314
  entropy T*S    EENTRO =        -0.00000000
  eigenvalues    EBANDS =      -655.90747958
  atomic energy  EATOM  =      2743.32276819
  Solvation  Ediel_sol  =         0.00000000
  ---------------------------------------------------
  free energy    TOTEN  =       -86.92233962 eV

  energy without entropy =      -86.92233962  energy(sigma->0) =      -86.92233962


--------------------------------------------------------------------------------------------------------




--------------------------------------- Iteration      1(  25)  ---------------------------------------


    POTLOK:  cpu time    0.0840: real time    0.0843
    SETDIJ:  cpu time    0.0015: real time    0.0015
    EDDIAG:  cpu time    0.0703: real time    0.0703
  RMM-DIIS:  cpu time    0.2902: real time    0.2902
    ORTHCH:  cpu time    0.0122: real time    0.0122
       DOS:  cpu time    0.0005: real time    0.0005
    CHARGE:  cpu time    0.0266: real time    0.0266
    MIXING:  cpu time    0.0083: real time    0.0083
    --------------------------------------------
      LOOP:  cpu time    0.4936: real time    0.4939

 eigenvalue-minimisations  :    53
 total energy-change (2. order) :-0.1126321E-05  (-0.2574213E-08)
 number of electron      48.0000250 magnetization 
 augmentation part        4.1693628 magnetization 

 DIPCOR: dipole corrections for dipol
 direction  1 min pos     1, direction  2 min pos     1, direction  3 min pos     1,
 dipolmoment           0.384569      0.218443     -0.131154 electrons x Angstroem
 Tr[quadrupol]        17.327620

 energy correction for charged system         0.000000 eV
 dipol+quadrupol energy correction           -0.000802 eV
 added-field ion interaction          0.002878 eV  (added to PSCEN)


 Broyden mixing:
  rms(total) = 0.12515E-04    rms(broyden)= 0.12497E-04
  rms(prec ) = 0.15403E-04
  weight for this iteration     100.00

 eigenvalues of (default mixing * dielectric matrix)
  average eigenvalue GAMMA=   2.3737
  9.2711  7.0378  4.9231  3.4501  2.7342  2.4260  2.1778  2.1778  1.7568  1.4351
  1.0880  1.0880  1.2127  1.0582  1.0582  0.9735  0.9735  0.8865  0.8732  0.8732

 Free energy of the ion-electron system (eV)
  ---------------------------------------------------
  alpha Z        PSCENC =         1.01120683
  Ewald energy   TEWEN  =      3088.91719270
  -Hartree energ DENC   =     -5456.83645247
  -exchange      EXHF   =         0.00000000
  -V(xc)+E(xc)   XCENC  =       205.14235476
  PAW double counting   =      3375.21579512    -3387.78699696
  entropy T*S    EENTRO =        -0.00000000
  eigenvalues    EBANDS =      -655.90820892
  atomic energy  EATOM  =      2743.32276819
  Solvation  Ediel_sol  =         0.00000000
  ---------------------------------------------------
  free energy    TOTEN  =       -86.92234074 eV

  energy without entropy =      -86.92234074  energy(sigma->0) =      -86.92234074


--------------------------------------------------------------------------------------------------------




--------------------------------------- Iteration      1(  26)  ---------------------------------------


    POTLOK:  cpu time    0.0859: real time    0.0862
    SETDIJ:  cpu time    0.0018: real time    0.0018
    EDDIAG:  cpu time    0.0711: real time    0.0711
  RMM-DIIS:  cpu time    0.2650: real time    0.2652
    ORTHCH:  cpu time    0.0128: real time    0.0128
       DOS:  cpu time    0.0003: real time    0.0003
    CHARGE:  cpu time    0.0262: real time    0.0262
    MIXING:  cpu time    0.0088: real time    0.0088
    --------------------------------------------
      LOOP:  cpu time    0.4720: real time    0.4724

 eigenvalue-minimisations  :    47
 total energy-change (2. order) :-0.1545127E-05  (-0.2547161E-08)
 number of electron      48.0000250 magnetization 
 augmentation part        4.1693629 magnetization 

 DIPCOR: dipole corrections for dipol
 direction  1 min pos     1, direction  2 min pos     1, direction  3 min pos     1,
 dipolmoment           0.384608      0.218492     -0.131179 electrons x Angstroem
 Tr[quadrupol]        17.327221

 energy correction for charged system         0.000000 eV
 dipol+quadrupol energy correction           -0.000802 eV
 added-field ion interaction          0.002879 eV  (added to PSCEN)


 Broyden mixing:
  rms(total) = 0.18221E-04    rms(broyden)= 0.18210E-04
  rms(prec ) = 0.20093E-04
  weight for this iteration     100.00

 eigenvalues of (default mixing * dielectric matrix)
  average eigenvalue GAMMA=   2.3914
  9.3581  7.2031  5.2470  4.1063  2.8390  2.6669  2.3916  2.2894  1.5928  1.5928
  1.1064  1.1064  1.0480  1.0480  1.0976  0.9753  0.9753  0.9935  0.9935  0.7946
  0.7946

 Free energy of the ion-electron system (eV)
  ---------------------------------------------------
  alpha Z        PSCENC =         1.01120701
  Ewald energy   TEWEN  =      3088.91719270
  -Hartree energ DENC   =     -5456.83583379
  -exchange      EXHF   =         0.00000000
  -V(xc)+E(xc)   XCENC  =       205.14232177
  PAW double counting   =      3375.21678217    -3387.78797224
  entropy T*S    EENTRO =        -0.00000000
  eigenvalues    EBANDS =      -655.90880810
  atomic energy  EATOM  =      2743.32276819
  Solvation  Ediel_sol  =         0.00000000
  ---------------------------------------------------
  free energy    TOTEN  =       -86.92234229 eV

  energy without entropy =      -86.92234229  energy(sigma->0) =      -86.92234229


--------------------------------------------------------------------------------------------------------




--------------------------------------- Iteration      1(  27)  ---------------------------------------


    POTLOK:  cpu time    0.0867: real time    0.0869
    SETDIJ:  cpu time    0.0018: real time    0.0018
    EDDIAG:  cpu time    0.0712: real time    0.0712
  RMM-DIIS:  cpu time    0.2703: real time    0.2706
    ORTHCH:  cpu time    0.0113: real time    0.0113
       DOS:  cpu time    0.0009: real time    0.0009
    --------------------------------------------
      LOOP:  cpu time    0.4422: real time    0.4427

 eigenvalue-minimisations  :    46
 total energy-change (2. order) :-0.8193133E-06  (-0.5930207E-09)
 number of electron      48.0000250 magnetization 
 augmentation part        4.1693629 magnetization 

 DIPCOR: dipole corrections for dipol
 direction  1 min pos     1, direction  2 min pos     1, direction  3 min pos     1,
 dipolmoment           0.384633      0.218523     -0.131194 electrons x Angstroem
 Tr[quadrupol]        17.326984

 energy correction for charged system         0.000000 eV
 dipol+quadrupol energy correction           -0.000803 eV
[...]
     10.79027     10.55874      8.43938        -0.005374     -0.003557      0.006458
     10.63231      9.41991     11.66732         0.003472     -0.018431     -0.007031
     12.82956     10.05405     10.19313        -0.004641      0.002040     -0.000003
      9.19706      8.33945      9.42248        -0.000550      0.003599      0.000286
      7.19331     10.04918      9.95253         0.011920      0.003544     -0.013902
      9.33548     11.66853     10.32393         0.002611      0.002492      0.002188
 -----------------------------------------------------------------------------------
    total drift:                               -0.002990      0.002961     -0.020554


--------------------------------------------------------------------------------------------------------



  FREE ENERGIE OF THE ION-ELECTRON SYSTEM (eV)
  ---------------------------------------------------
  free  energy   TOTEN  =       -87.49047436 eV

  energy  without entropy=      -87.49047436  energy(sigma->0) =      -87.49047436
 
 d Force = 0.1109914E-04[-0.110E-04, 0.332E-04]  d Energy = 0.1200184E-04-0.903E-06
 d Force = 0.4251873E+00[ 0.426E+00, 0.424E+00]  d Ewald  = 0.4251873E+00 0.494E-07


--------------------------------------------------------------------------------------------------------


    POTLOK:  cpu time    0.0894: real time    0.0895


--------------------------------------------------------------------------------------------------------


    WAVPRE:  cpu time    0.0120: real time    0.1991
    FEWALD:  cpu time    0.0005: real time    0.0007
    ORTHCH:  cpu time    0.0357: real time    0.0358
     LOOP+:  cpu time    8.6221: real time    8.8227


--------------------------------------- Iteration     70(   1)  ---------------------------------------


    POTLOK:  cpu time    0.0887: real time    0.0895
    SETDIJ:  cpu time    0.0016: real time    0.0016
     EDDAV:  cpu time    0.4173: real time    0.4176
       DOS:  cpu time    0.0011: real time    0.0011
    CHARGE:  cpu time    0.0266: real time    0.0266
    MIXING:  cpu time    0.0028: real time    0.0028
    --------------------------------------------
      LOOP:  cpu time    0.5380: real time    0.5392

 eigenvalue-minimisations  :    88
 total energy-change (2. order) :-0.9857927E-04  (-0.1866712E-03)
 number of electron      48.0001151 magnetization 
 augmentation part        4.1604768 magnetization 

 DIPCOR: dipole corrections for dipol
 direction  1 min pos     1, direction  2 min pos     1, direction  3 min pos     1,
 dipolmoment           0.316088      0.261957     -0.115897 electrons x Angstroem
 Tr[quadrupol]        18.188683

 energy correction for charged system         0.000000 eV
 dipol+quadrupol energy correction           -0.000686 eV
 added-field ion interaction          0.002999 eV  (added to PSCEN)


  free energy =  -0.874905721484E+02  energy without entropy=  -0.874905721484E+02


--------------------------------------------------------------------------------------------------------




--------------------------------------- Iteration     70(   2)  ---------------------------------------


    POTLOK:  cpu time    0.0852: real time    0.0855
    SETDIJ:  cpu time    0.0015: real time    0.0015
    EDDIAG:  cpu time    0.0696: real time    0.0700
  RMM-DIIS:  cpu time    0.3733: real time    0.3734
    ORTHCH:  cpu time    0.0123: real time    0.0123
       DOS:  cpu time    0.0003: real time    0.0003
    CHARGE:  cpu time    0.0265: real time    0.0265
    MIXING:  cpu time    0.0030: real time    0.0031
    --------------------------------------------
      LOOP:  cpu time    0.5717: real time    0.5726

 eigenvalue-minimisations  :    84
 total energy-change (2. order) : 0.6153563E-04  (-0.1255393E-04)
 number of electron      48.0001151 magnetization 
 augmentation part        4.1604645 magnetization 

 DIPCOR: dipole corrections for dipol
 direction  1 min pos     1, direction  2 min pos     1, direction  3 min pos     1,
 dipolmoment           0.316136      0.261756     -0.116190 electrons x Angstroem
 Tr[quadrupol]        18.186902

 energy correction for charged system         0.000000 eV
 dipol+quadrupol energy correction           -0.000686 eV
 added-field ion interaction          0.003000 eV  (added to PSCEN)


 eigenvalues of (default mixing * dielectric matrix)
  average eigenvalue GAMMA=   2.0775
  2.0775

  free energy =  -0.874905106128E+02  energy without entropy=  -0.874905106128E+02


--------------------------------------------------------------------------------------------------------




--------------------------------------- Iteration     70(   3)  ---------------------------------------


    POTLOK:  cpu time    0.0835: real time    0.0837
    SETDIJ:  cpu time    0.0015: real time    0.0015
    EDDIAG:  cpu time    0.0696: real time    0.0698
  RMM-DIIS:  cpu time    0.4076: real time    0.4078
    ORTHCH:  cpu time    0.0128: real time    0.0128
       DOS:  cpu time    0.0003: real time    0.0003
    CHARGE:  cpu time    0.0266: real time    0.0266
    MIXING:  cpu time    0.0032: real time    0.0032
    --------------------------------------------
      LOOP:  cpu time    0.6052: real time    0.6058

 eigenvalue-minimisations  :    93
 total energy-change (2. order) : 0.2991643E-04  (-0.1245230E-04)
 number of electron      48.0001151 magnetization 
 augmentation part        4.1604519 magnetization 

 DIPCOR: dipole corrections for dipol
 direction  1 min pos     1, direction  2 min pos     1, direction  3 min pos     1,
 dipolmoment           0.316219      0.261441     -0.116609 electrons x Angstroem
 Tr[quadrupol]        18.184200

 energy correction for charged system         0.000000 eV
 dipol+quadrupol energy correction           -0.000686 eV
 added-field ion interaction          0.003002 eV  (added to PSCEN)


 eigenvalues of (default mixing * dielectric matrix)
  average eigenvalue GAMMA=   1.4485
  1.1349  1.7621

  free energy =  -0.874904806963E+02  energy without entropy=  -0.874904806963E+02


--------------------------------------------------------------------------------------------------------




--------------------------------------- Iteration     70(   4)  ---------------------------------------


    POTLOK:  cpu time    0.0836: real time    0.0838
    SETDIJ:  cpu time    0.0015: real time    0.0015
    EDDIAG:  cpu time    0.0700: real time    0.0700
  RMM-DIIS:  cpu time    0.3146: real time    0.3148
    ORTHCH:  cpu time    0.0125: real time    0.0125
       DOS:  cpu time    0.0003: real time    0.0003
    --------------------------------------------
      LOOP:  cpu time    0.4825: real time    0.4830

 eigenvalue-minimisations  :    71
 total energy-change (2. order) : 0.9216592E-07  (-0.1606048E-06)
 number of electron      48.0001151 magnetization 
 augmentation part        4.1604519 magnetization 

 DIPCOR: dipole corrections for dipol
 direction  1 min pos     1, direction  2 min pos     1, direction  3 min pos     1,
 dipolmoment           0.316236      0.261406     -0.116628 electrons x Angstroem
 Tr[quadrupol]        18.183965

 energy correction for charged system         0.000000 eV
 dipol+quadrupol energy correction           -0.000686 eV
 added-field ion interaction          0.003002 eV  (added to PSCEN)


  free energy =  -0.874904806042E+02  energy without entropy=  -0.874904806042E+02


--------------------------------------------------------------------------------------------------------




 average (electrostatic) potential at core
  the test charge radii are     0.5201  0.7215
  (the norm of the test charge is              1.0000)
       1 -43.8615       2 -43.3962       3 -43.9372       4 -43.8281       5 -43.3521
       6 -44.4527       7 -43.8170       8 -44.9727       9 -44.8672      10 -43.8414
      11 -43.3186      12 -44.8813      13 -80.2189      14 -80.2832      15 -80.3007
      16 -80.8791      17 -80.7789      18 -80.7719
 
 
 
 E-fermi :  -6.4058     XC(G=0):  -0.3083     alpha+bet : -0.0975


 k-point     1 :       0.0000    0.0000    0.0000
  band No.  band energies     occupation 
      1     -25.6913      2.00000
      2     -25.3370      2.00000
      3     -25.2287      2.00000
      4     -24.9934      2.00000
      5     -24.7998      2.00000
      6     -24.5180      2.00000
      7     -13.6868      2.00000
      8     -13.2912      2.00000
      9     -13.0323      2.00000
     10     -12.9557      2.00000
     11     -12.5636      2.00000
     12     -12.4489      2.00000
     13     -10.5903      2.00000
     14      -9.7775      2.00000
     15      -9.6029      2.00000
     16      -9.1806      2.00000
     17      -9.0824      2.00000
     18      -8.4827      2.00000
     19      -7.6711      2.00000
     20      -7.6023      2.00000
     21      -7.4901      2.00000
     22      -7.1947      2.00000
     23      -6.9803      2.00000
     24      -6.9128      2.00000
     25      -1.2297      0.00000
     26      -0.5134      0.00000
     27      -0.4550      0.00000
     28      -0.1082      0.00000
     29       0.0586      0.00000
     30       0.2181      0.00000
     31       0.3178      0.00000
     32       0.4349      0.00000
     33       0.4554      0.00000
     34       0.4679      0.00000
     35       0.5210      0.00000
     36       0.5554      0.00000


--------------------------------------------------------------------------------------------------------


 soft charge-density along one line, spin component           1
         0         1         2         3         4         5         6         7         8         9
 total charge-density along one line
 
 pseudopotential strength for first ion, spin component:           1
 -2.375  -4.098  -0.002   0.000  -0.001
 -4.098  -6.987  -0.007   0.000  -0.004
 -0.002  -0.007  -0.320  -0.000   0.003
  0.000   0.000  -0.000  -0.326  -0.000
 -0.001  -0.004   0.003  -0.000  -0.324
 total augmentation occupancy for first ion, spin component:           1
  3.960  -0.897   0.602  -0.022   0.334
 -0.897   0.245  -0.133   0.006  -0.070
  0.602  -0.133   0.108  -0.003   0.046
 -0.022   0.006  -0.003   0.032  -0.006
  0.334  -0.070   0.046  -0.006   0.050


------------------------ aborting loop because EDIFF is reached ----------------------------------------


 


 total charge     
 
# of ion       s       p       d       tot
------------------------------------------
    1        0.602   0.113   0.000   0.716
    2        0.579   0.113   0.000   0.692
    3        0.604   0.113   0.000   0.717
    4        0.598   0.114   0.000   0.712
    5        0.573   0.113   0.000   0.685
    6        0.628   0.115   0.000   0.742
    7        0.567   0.112   0.000   0.679
    8        0.625   0.115   0.000   0.740
    9        0.626   0.114   0.000   0.740
   10        0.574   0.113   0.000   0.686
   11        0.544   0.107   0.000   0.651
   12        0.624   0.115   0.000   0.739
   13        1.584   3.643   0.000   5.227
   14        1.586   3.638   0.000   5.223
   15        1.585   3.636   0.000   5.221
   16        1.583   3.642   0.000   5.225
   17        1.585   3.638   0.000   5.223
   18        1.582   3.642   0.000   5.223
--------------------------------------------------
tot         16.648  23.194   0.000  39.842
 
    CHARGE:  cpu time    0.0265: real time    0.0265
    FORLOC:  cpu time    0.0093: real time    0.0093
    FORNL :  cpu time    0.0826: real time    0.0826
    STRESS:  cpu time    0.1995: real time    0.1995
    FORCOR:  cpu time    0.0794: real time    0.0795
    FORHAR:  cpu time    0.0262: real time    0.0262
    MIXING:  cpu time    0.0028: real time    0.0028
    OFIELD:  cpu time    0.0001: real time    0.0000

  FORCE on cell =-STRESS in cart. coord.  units (eV):
  Direction    XX          YY          ZZ          XY          YZ          ZX
  --------------------------------------------------------------------------------------
  Alpha Z     1.00913     1.00913     1.00913
  Ewald    1724.19331   893.34118   522.06609     4.22829    54.16421   -44.06595
  Hartree  2439.96171  1603.38197  1462.59126     8.35957    -4.37917     7.66981
  E(xc)    -217.16268  -217.14380  -218.12797    -0.02172     0.29639    -0.28940
  Local   -4708.37624 -3009.03068 -2570.92489   -11.45120   -32.08013    21.97978
  n-local  -184.93299  -184.55853  -185.77789    -0.16010     0.80527    -0.60390
  augment    41.34519    39.16840    44.04892    -0.07021    -1.16319     0.93928
  Kinetic   899.35689   869.35674   940.32556    -0.87356   -17.56198    14.35319
  Fock        0.00000     0.00000     0.00000     0.00000     0.00000     0.00000
  -------------------------------------------------------------------------------------
  Total      -4.60567    -4.47560    -4.78979     0.01108     0.08140    -0.01718
  in kB      -0.92239    -0.89634    -0.95926     0.00222     0.01630    -0.00344
  external pressure =       -0.93 kB  Pullay stress =        0.00 kB


 VOLUME and BASIS-vectors are now :
 -----------------------------------------------------------------------------
  energy-cutoff  :      400.00
  volume of cell :     8000.00
      direct lattice vectors                 reciprocal lattice vectors
    20.000001179  0.000000000  0.000000000     0.049999997 -0.000000000 -0.000000000
     0.000000000 20.000001179  0.000000000     0.000000000  0.049999997 -0.000000000
     0.000000000  0.000000000 20.000001179     0.000000000  0.000000000  0.049999997

  length of vectors
    20.000001179 20.000001179 20.000001179     0.049999997  0.049999997  0.049999997


 FORCES acting on ions
    electron-ion (+dipol)            ewald-force                    non-local-force                 convergence-correction
 -----------------------------------------------------------------------------------------------
   0.263E+02 0.685E+02 0.413E+02   -.302E+02 -.755E+02 -.411E+02   0.397E+01 0.694E+01 -.218E+00   0.107E-03 0.212E-04 -.608E-04
   -.804E+02 0.105E+01 0.415E+01   0.869E+02 -.221E+01 -.681E+00   -.657E+01 0.116E+01 -.347E+01   0.509E-03 0.436E-04 0.654E-04
   0.268E+02 -.698E+02 -.357E+02   -.302E+02 0.770E+02 0.348E+02   0.339E+01 -.721E+01 0.949E+00   -.896E-04 -.907E-04 0.237E-03
   0.271E+02 0.715E+02 0.142E+02   -.308E+02 -.763E+02 -.194E+02   0.367E+01 0.478E+01 0.514E+01   0.781E-04 0.156E-03 0.332E-03
   0.338E+01 0.250E+02 -.586E+02   -.845E+01 -.271E+02 0.634E+02   0.507E+01 0.213E+01 -.484E+01   0.281E-03 0.931E-04 0.557E-05
   -.924E+02 0.657E+02 0.484E+01   0.984E+02 -.714E+02 -.536E+01   -.597E+01 0.572E+01 0.520E+00   0.167E-04 0.126E-03 0.338E-04
   0.737E+02 0.146E+01 0.136E+01   -.798E+02 0.226E+01 -.153E+00   0.606E+01 -.372E+01 -.120E+01   -.464E-03 0.499E-03 0.441E-03
   0.267E+02 0.109E+03 0.393E+02   -.286E+02 -.117E+03 -.421E+02   0.187E+01 0.762E+01 0.275E+01   -.152E-03 -.197E-03 0.494E-04
   0.767E+02 0.126E+02 -.816E+02   -.810E+02 -.137E+02 0.886E+02   0.432E+01 0.113E+01 -.698E+01   -.991E-04 0.268E-03 -.269E-04
   -.861E+00 -.623E+02 -.124E+02   0.577E+01 0.678E+02 0.135E+02   -.491E+01 -.544E+01 -.106E+01   -.480E-03 -.810E-04 0.229E-03
   -.274E+02 -.234E+02 0.497E+02   0.311E+02 0.213E+02 -.546E+02   -.368E+01 0.203E+01 0.489E+01   -.563E-04 0.121E-03 0.147E-05
   0.422E+01 -.120E+03 -.947E+01   -.405E+01 0.128E+03 0.978E+01   -.170E+00 -.830E+01 -.304E+00   -.215E-03 0.304E-03 0.151E-03
   -.650E+02 -.103E+03 0.258E+03   0.562E+02 0.138E+03 -.280E+03   0.879E+01 -.348E+02 0.219E+02   0.119E-02 0.151E-02 -.189E-02
   -.709E+02 0.927E+02 -.265E+03   0.100E+03 -.105E+03 0.296E+03   -.292E+02 0.122E+02 -.308E+02   -.714E-04 -.669E-03 0.556E-03
   -.239E+03 -.509E+02 0.289E+01   0.237E+03 0.895E+02 -.200E+02   0.227E+01 -.386E+02 0.171E+02   0.426E-03 -.136E-03 0.108E-02
   0.132E+02 0.206E+03 0.733E+02   0.227E+02 -.188E+03 -.668E+02   -.359E+02 -.178E+02 -.654E+01   -.177E-03 0.279E-02 0.244E-02
   0.251E+03 0.101E+02 0.460E+02   -.257E+03 -.264E+02 -.851E+02   0.606E+01 0.164E+02 0.391E+02   -.131E-02 0.270E-02 0.215E-02
   0.729E+02 -.205E+03 -.875E+02   -.885E+02 0.179E+03 0.109E+03   0.156E+02 0.269E+02 -.219E+02   -.263E-02 -.409E-03 0.128E-02
 -----------------------------------------------------------------------------------------------
   0.253E+02 0.289E+02 -.151E+02   0.284E-13 -.284E-13 0.000E+00   -.253E+02 -.289E+02 0.151E+02   -.314E-02 0.705E-02 0.707E-02
 
 
 POSITION                                       TOTAL-FORCE (eV/Angst)
 -----------------------------------------------------------------------------------
     10.31660      9.69624      8.48086         0.000517     -0.000914     -0.003150
     11.65179     10.37982      8.91066         0.002398      0.001058      0.000329
     10.20532     10.29567     11.53151        -0.002055      0.000788      0.003232
     10.16345      8.84378     11.01734        -0.000045      0.001872      0.003506
     12.14722      9.73428     10.85414         0.000492      0.001302      0.000067
     13.51463      9.36733     10.14541         0.000398      0.000880     -0.001264
      8.33830      8.83678      9.58520        -0.000168     -0.000115      0.000683
      8.95606      7.45388      9.10393         0.001094     -0.001744     -0.002312
      6.70392      9.93045     10.78389        -0.000369     -0.001809     -0.001812
      7.85168     10.78317     10.12589        -0.004701      0.002254      0.002255
      9.92462     11.36426      9.54203        -0.000671      0.001644     -0.001869
      9.36516     12.63955     10.34315        -0.000051      0.000505      0.003031
     10.79017     10.55862      8.43949        -0.004056     -0.001548      0.005412
     10.63238      9.41976     11.66727         0.002604     -0.005762     -0.002878
     12.82948     10.05412     10.19310        -0.002109      0.001013     -0.000754
      9.19701      8.33942      9.42249        -0.000116      0.000271     -0.001099
      7.19349     10.04918      9.95235         0.004034      0.000200     -0.005409
      9.33555     11.66860     10.32390         0.002804      0.000103      0.002030
 -----------------------------------------------------------------------------------
    total drift:                               -0.003557      0.002439     -0.021192


--------------------------------------------------------------------------------------------------------



  FREE ENERGIE OF THE ION-ELECTRON SYSTEM (eV)
  ---------------------------------------------------
  free  energy   TOTEN  =       -87.49048060 eV

  energy  without entropy=      -87.49048060  energy(sigma->0) =      -87.49048060
 
 d Force = 0.1080220E-04[ 0.715E-05, 0.145E-04]  d Energy = 0.6245174E-05 0.456E-05
 d Force =-0.5023490E-01[-0.502E-01,-0.502E-01]  d Ewald  =-0.5023491E-01 0.163E-08


--------------------------------------------------------------------------------------------------------


    POTLOK:  cpu time    0.0844: real time    0.0847


--------------------------------------------------------------------------------------------------------



 total amount of memory used by VASP MPI-rank0    52198. kBytes
=======================================================================

   base      :      30000. kBytes
   nonl-proj :       5035. kBytes
   fftplans  :       6155. kBytes
   grid      :       9257. kBytes
   one-center:          6. kBytes
   wavefun   :       1745. kBytes
 
  
  
 General timing and accounting informations for this job:
 ========================================================
  
                  Total CPU time used (sec):      666.345
                            User time (sec):      652.846
                          System time (sec):       13.499
                         Elapsed time (sec):      679.864
  
                   Maximum memory used (kb):      109988.
                   Average memory used (kb):           0.
  
                          Minor page faults:      4541702
                          Major page faults:            2
                 Voluntary context switches:         6195
