PROCAR lm decomposed
# of k-points:    1         # of bands:   36         # of ions:   18

 k-point     1 :    0.00000000 0.00000000 0.00000000     weight = 1.00000000

band     1 # energy  -25.68377283 # occ.  2.00000000
 
ion      s     py     pz     px    dxy    dyz    dz2    dxz  x2-y2    tot
    1  0.008  0.001  0.000  0.000  0.000  0.000  0.000  0.000  0.000  0.009
    2  0.006  0.000  0.000  0.001  0.000  0.000  0.000  0.000  0.000  0.007
    3  0.005  0.001  0.000  0.000  0.000  0.000  0.000  0.000  0.000  0.006
    4  0.006  0.000  0.000  0.000  0.000  0.000  0.000  0.000  0.000  0.007
    5  0.001  0.000  0.000  0.000  0.000  0.000  0.000  0.000  0.000  0.002
    6  0.001  0.000  0.000  0.000  0.000  0.000  0.000  0.000  0.000  0.001
    7  0.053  0.003  0.000  0.007  0.000  0.000  0.000  0.000  0.000  0.063
    8  0.058  0.010  0.002  0.000  0.000  0.000  0.000  0.000  0.000  0.070
    9  0.002  0.000  0.000  0.000  0.000  0.000  0.000  0.000  0.000  0.002
   10  0.006  0.000  0.000  0.000  0.000  0.000  0.000  0.000  0.000  0.007
   11  0.020  0.000  0.002  0.001  0.000  0.000  0.000  0.000  0.000  0.023
   12  0.022  0.004  0.000  0.000  0.000  0.000  0.000  0.000  0.000  0.026
   13  0.050  0.001  0.001  0.000  0.000  0.000  0.000  0.000  0.000  0.052
   14  0.034  0.000  0.001  0.001  0.000  0.000  0.000  0.000  0.000  0.036
   15  0.008  0.000  0.000  0.000  0.000  0.000  0.000  0.000  0.000  0.009
   16  0.424  0.002  0.001  0.015  0.000  0.000  0.000  0.000  0.000  0.442
   17  0.033  0.000  0.000  0.000  0.000  0.000  0.000  0.000  0.000  0.034
   18  0.160  0.002  0.002  0.001  0.000  0.000  0.000  0.000  0.000  0.166
tot    0.897  0.027  0.009  0.028  0.000  0.000  0.000  0.000  0.000  0.961
 
band     2 # energy  -25.48946468 # occ.  2.00000000
 
ion      s     py     pz     px    dxy    dyz    dz2    dxz  x2-y2    tot
    1  0.003  0.001  0.000  0.000  0.000  0.000  0.000  0.000  0.000  0.004
    2  0.004  0.000  0.000  0.001  0.000  0.000  0.000  0.000  0.000  0.005
    3  0.001  0.000  0.000  0.000  0.000  0.000  0.000  0.000  0.000  0.001
    4  0.000  0.000  0.000  0.000  0.000  0.000  0.000  0.000  0.000  0.000
    5  0.001  0.000  0.000  0.000  0.000  0.000  0.000  0.000  0.000  0.001
    6  0.001  0.000  0.000  0.000  0.000  0.000  0.000  0.000  0.000  0.001
    7  0.030  0.002  0.000  0.004  0.000  0.000  0.000  0.000  0.000  0.036
    8  0.037  0.006  0.001  0.000  0.000  0.000  0.000  0.000  0.000  0.044
    9  0.000  0.000  0.000  0.000  0.000  0.000  0.000  0.000  0.000  0.000
   10  0.001  0.000  0.000  0.000  0.000  0.000  0.000  0.000  0.000  0.001
   11  0.050  0.001  0.005  0.003  0.000  0.000  0.000  0.000  0.000  0.059
   12  0.059  0.012  0.000  0.000  0.000  0.000  0.000  0.000  0.000  0.071
   13  0.034  0.001  0.001  0.000  0.000  0.000  0.000  0.000  0.000  0.035
   14  0.004  0.000  0.000  0.000  0.000  0.000  0.000  0.000  0.000  0.004
   15  0.006  0.000  0.000  0.000  0.000  0.000  0.000  0.000  0.000  0.006
   16  0.254  0.002  0.000  0.009  0.000  0.000  0.000  0.000  0.000  0.266
   17  0.000  0.000  0.000  0.000  0.000  0.000  0.000  0.000  0.000  0.000
   18  0.422  0.007  0.006  0.004  0.000  0.000  0.000  0.000  0.000  0.440
tot    0.908  0.032  0.014  0.022  0.000  0.000  0.000  0.000  0.000  0.976
 
band     3 # energy  -25.13423397 # occ.  2.00000000
 
ion      s     py     pz     px    dxy    dyz    dz2    dxz  x2-y2    tot
    1  0.004  0.001  0.000  0.000  0.000  0.000  0.000  0.000  0.000  0.005
    2  0.007  0.000  0.000  0.001  0.000  0.000  0.000  0.000  0.000  0.008
    3  0.026  0.005  0.000  0.001  0.000  0.000  0.000  0.000  0.000  0.031
    4  0.026  0.002  0.002  0.001  0.000  0.000  0.000  0.000  0.000  0.032
    5  0.053  0.001  0.004  0.004  0.000  0.000  0.000  0.000  0.000  0.062
    6  0.054  0.003  0.000  0.008  0.000  0.000  0.000  0.000  0.000  0.065
    7  0.002  0.000  0.000  0.000  0.000  0.000  0.000  0.000  0.000  0.002
    8  0.002  0.000  0.000  0.000  0.000  0.000  0.000  0.000  0.000  0.002
    9  0.001  0.000  0.000  0.000  0.000  0.000  0.000  0.000  0.000  0.001
   10  0.002  0.000  0.000  0.000  0.000  0.000  0.000  0.000  0.000  0.003
   11  0.006  0.000  0.001  0.001  0.000  0.000  0.000  0.000  0.000  0.007
   12  0.010  0.002  0.000  0.000  0.000  0.000  0.000  0.000  0.000  0.012
   13  0.033  0.001  0.000  0.000  0.000  0.000  0.000  0.000  0.000  0.036
   14  0.204  0.001  0.005  0.004  0.000  0.000  0.000  0.000  0.000  0.213
   15  0.388  0.011  0.006  0.000  0.000  0.000  0.000  0.000  0.000  0.406
   16  0.010  0.000  0.000  0.001  0.000  0.000  0.000  0.000  0.000  0.011
   17  0.013  0.000  0.000  0.000  0.000  0.000  0.000  0.000  0.000  0.013
   18  0.065  0.002  0.001  0.000  0.000  0.000  0.000  0.000  0.000  0.068
tot    0.905  0.029  0.020  0.021  0.000  0.000  0.000  0.000  0.000  0.976
 
band     4 # energy  -24.88840316 # occ.  2.00000000
 
ion      s     py     pz     px    dxy    dyz    dz2    dxz  x2-y2    tot
    1  0.041  0.006  0.000  0.002  0.000  0.000  0.000  0.000  0.000  0.050
    2  0.041  0.000  0.001  0.006  0.000  0.000  0.000  0.000  0.000  0.049
    3  0.048  0.008  0.000  0.002  0.000  0.000  0.000  0.000  0.000  0.057
    4  0.046  0.004  0.004  0.002  0.000  0.000  0.000  0.000  0.000  0.056
    5  0.003  0.000  0.001  0.001  0.000  0.000  0.000  0.000  0.000  0.005
    6  0.007  0.000  0.000  0.001  0.000  0.000  0.000  0.000  0.000  0.008
    7  0.000  0.000  0.000  0.000  0.000  0.000  0.000  0.000  0.000  0.000
    8  0.000  0.000  0.000  0.000  0.000  0.000  0.000  0.000  0.000  0.000
    9  0.000  0.000  0.000  0.000  0.000  0.000  0.000  0.000  0.000  0.000
   10  0.001  0.000  0.000  0.000  0.000  0.000  0.000  0.000  0.000  0.001
   11  0.000  0.000  0.000  0.000  0.000  0.000  0.000  0.000  0.000  0.001
   12  0.002  0.000  0.000  0.000  0.000  0.000  0.000  0.000  0.000  0.002
   13  0.311  0.010  0.003  0.001  0.000  0.000  0.000  0.000  0.000  0.326
   14  0.348  0.001  0.008  0.009  0.000  0.000  0.000  0.000  0.000  0.366
   15  0.046  0.001  0.000  0.000  0.000  0.000  0.000  0.000  0.000  0.048
   16  0.001  0.000  0.000  0.000  0.000  0.000  0.000  0.000  0.000  0.001
   17  0.004  0.000  0.000  0.000  0.000  0.000  0.000  0.000  0.000  0.005
   18  0.011  0.000  0.000  0.000  0.000  0.000  0.000  0.000  0.000  0.012
tot    0.912  0.032  0.017  0.025  0.000  0.000  0.000  0.000  0.000  0.986
 
band     5 # energy  -24.69960518 # occ.  2.00000000
 
ion      s     py     pz     px    dxy    dyz    dz2    dxz  x2-y2    tot
    1  0.032  0.005  0.000  0.002  0.000  0.000  0.000  0.000  0.000  0.039
    2  0.025  0.000  0.001  0.005  0.000  0.000  0.000  0.000  0.000  0.032
    3  0.015  0.003  0.000  0.001  0.000  0.000  0.000  0.000  0.000  0.018
    4  0.015  0.001  0.001  0.001  0.000  0.000  0.000  0.000  0.000  0.019
    5  0.027  0.000  0.003  0.004  0.000  0.000  0.000  0.000  0.000  0.034
    6  0.039  0.002  0.000  0.005  0.000  0.000  0.000  0.000  0.000  0.046
    7  0.001  0.000  0.000  0.000  0.000  0.000  0.000  0.000  0.000  0.001
    8  0.000  0.000  0.000  0.000  0.000  0.000  0.000  0.000  0.000  0.000
    9  0.006  0.000  0.000  0.001  0.000  0.000  0.000  0.000  0.000  0.007
   10  0.016  0.002  0.000  0.001  0.000  0.000  0.000  0.000  0.000  0.019
   11  0.000  0.000  0.000  0.000  0.000  0.000  0.000  0.000  0.000  0.001
   12  0.003  0.001  0.000  0.000  0.000  0.000  0.000  0.000  0.000  0.003
   13  0.236  0.008  0.002  0.001  0.000  0.000  0.000  0.000  0.000  0.246
   14  0.113  0.000  0.002  0.004  0.000  0.000  0.000  0.000  0.000  0.119
   15  0.255  0.008  0.004  0.001  0.000  0.000  0.000  0.000  0.000  0.268
   16  0.001  0.000  0.000  0.000  0.000  0.000  0.000  0.000  0.000  0.001
   17  0.112  0.002  0.002  0.000  0.000  0.000  0.000  0.000  0.000  0.116
   18  0.016  0.000  0.000  0.000  0.000  0.000  0.000  0.000  0.000  0.017
tot    0.911  0.032  0.017  0.025  0.000  0.000  0.000  0.000  0.000  0.985
 
band     6 # energy  -24.54416233 # occ.  2.00000000
 
ion      s     py     pz     px    dxy    dyz    dz2    dxz  x2-y2    tot
    1  0.007  0.001  0.000  0.000  0.000  0.000  0.000  0.000  0.000  0.009
    2  0.007  0.000  0.000  0.001  0.000  0.000  0.000  0.000  0.000  0.008
    3  0.002  0.000  0.000  0.000  0.000  0.000  0.000  0.000  0.000  0.002
    4  0.002  0.000  0.000  0.000  0.000  0.000  0.000  0.000  0.000  0.002
    5  0.002  0.000  0.000  0.000  0.000  0.000  0.000  0.000  0.000  0.002
    6  0.003  0.000  0.000  0.000  0.000  0.000  0.000  0.000  0.000  0.003
    7  0.001  0.001  0.000  0.001  0.000  0.000  0.000  0.000  0.000  0.003
    8  0.006  0.001  0.000  0.000  0.000  0.000  0.000  0.000  0.000  0.007
    9  0.034  0.000  0.002  0.003  0.000  0.000  0.000  0.000  0.000  0.039
   10  0.073  0.009  0.000  0.007  0.000  0.000  0.000  0.000  0.000  0.089
   11  0.004  0.000  0.001  0.000  0.000  0.000  0.000  0.000  0.000  0.006
   12  0.009  0.002  0.000  0.000  0.000  0.000  0.000  0.000  0.000  0.010
   13  0.055  0.002  0.000  0.000  0.000  0.000  0.000  0.000  0.000  0.058
   14  0.014  0.000  0.000  0.000  0.000  0.000  0.000  0.000  0.000  0.015
   15  0.018  0.001  0.000  0.000  0.000  0.000  0.000  0.000  0.000  0.019
   16  0.033  0.001  0.000  0.001  0.000  0.000  0.000  0.000  0.000  0.035
   17  0.567  0.009  0.009  0.001  0.000  0.000  0.000  0.000  0.000  0.585
   18  0.050  0.002  0.001  0.001  0.000  0.000  0.000  0.000  0.000  0.054
tot    0.887  0.028  0.015  0.017  0.000  0.000  0.000  0.000  0.000  0.947
 
band     7 # energy  -13.60679719 # occ.  2.00000000
 
ion      s     py     pz     px    dxy    dyz    dz2    dxz  x2-y2    tot
    1  0.003  0.000  0.000  0.000  0.000  0.000  0.000  0.000  0.000  0.003
    2  0.007  0.000  0.000  0.000  0.000  0.000  0.000  0.000  0.000  0.008
    3  0.000  0.000  0.000  0.000  0.000  0.000  0.000  0.000  0.000  0.000
    4  0.001  0.000  0.000  0.000  0.000  0.000  0.000  0.000  0.000  0.001
    5  0.000  0.000  0.000  0.000  0.000  0.000  0.000  0.000  0.000  0.000
    6  0.001  0.000  0.000  0.000  0.000  0.000  0.000  0.000  0.000  0.001
    7  0.099  0.000  0.000  0.010  0.000  0.000  0.000  0.000  0.000  0.109
    8  0.112  0.008  0.001  0.003  0.000  0.000  0.000  0.000  0.000  0.125
    9  0.020  0.000  0.001  0.000  0.000  0.000  0.000  0.000  0.000  0.021
   10  0.008  0.001  0.000  0.000  0.000  0.000  0.000  0.000  0.000  0.009
   11  0.026  0.000  0.001  0.001  0.000  0.000  0.000  0.000  0.000  0.028
   12  0.037  0.004  0.000  0.000  0.000  0.000  0.000  0.000  0.000  0.041
   13  0.000  0.000  0.000  0.017  0.000  0.000  0.000  0.000  0.000  0.017
   14  0.001  0.000  0.001  0.001  0.000  0.000  0.000  0.000  0.000  0.002
   15  0.000  0.000  0.000  0.002  0.000  0.000  0.000  0.000  0.000  0.002
   16  0.000  0.276  0.036  0.034  0.000  0.000  0.000  0.000  0.000  0.346
   17  0.001  0.000  0.010  0.046  0.000  0.000  0.000  0.000  0.000  0.058
   18  0.000  0.084  0.018  0.004  0.000  0.000  0.000  0.000  0.000  0.106
tot    0.316  0.375  0.068  0.119  0.000  0.000  0.000  0.000  0.000  0.878
 
band     8 # energy  -13.37623004 # occ.  2.00000000
 
ion      s     py     pz     px    dxy    dyz    dz2    dxz  x2-y2    tot
    1  0.002  0.000  0.000  0.000  0.000  0.000  0.000  0.000  0.000  0.002
    2  0.000  0.000  0.000  0.000  0.000  0.000  0.000  0.000  0.000  0.001
    3  0.010  0.000  0.000  0.000  0.000  0.000  0.000  0.000  0.000  0.011
    4  0.010  0.000  0.000  0.000  0.000  0.000  0.000  0.000  0.000  0.011
    5  0.000  0.000  0.000  0.000  0.000  0.000  0.000  0.000  0.000  0.001
    6  0.000  0.000  0.000  0.000  0.000  0.000  0.000  0.000  0.000  0.001
    7  0.036  0.000  0.000  0.004  0.000  0.000  0.000  0.000  0.000  0.040
    8  0.044  0.003  0.000  0.001  0.000  0.000  0.000  0.000  0.000  0.049
    9  0.002  0.000  0.000  0.000  0.000  0.000  0.000  0.000  0.000  0.002
   10  0.008  0.000  0.000  0.000  0.000  0.000  0.000  0.000  0.000  0.009
   11  0.093  0.000  0.006  0.004  0.000  0.000  0.000  0.000  0.000  0.103
   12  0.117  0.012  0.000  0.001  0.000  0.000  0.000  0.000  0.000  0.131
   13  0.000  0.008  0.002  0.002  0.000  0.000  0.000  0.000  0.000  0.012
   14  0.000  0.026  0.002  0.000  0.000  0.000  0.000  0.000  0.000  0.028
   15  0.000  0.000  0.000  0.001  0.000  0.000  0.000  0.000  0.000  0.002
   16  0.000  0.104  0.017  0.012  0.000  0.000  0.000  0.000  0.000  0.133
   17  0.000  0.012  0.000  0.004  0.000  0.000  0.000  0.000  0.000  0.016
   18  0.000  0.268  0.061  0.023  0.000  0.000  0.000  0.000  0.000  0.352
tot    0.326  0.435  0.089  0.053  0.000  0.000  0.000  0.000  0.000  0.903
 
band     9 # energy  -13.01416261 # occ.  2.00000000
 
ion      s     py     pz     px    dxy    dyz    dz2    dxz  x2-y2    tot
    1  0.031  0.003  0.000  0.000  0.000  0.000  0.000  0.000  0.000  0.034
    2  0.038  0.001  0.000  0.002  0.000  0.000  0.000  0.000  0.000  0.041
    3  0.000  0.000  0.000  0.000  0.000  0.000  0.000  0.000  0.000  0.001
    4  0.005  0.000  0.001  0.000  0.000  0.000  0.000  0.000  0.000  0.006
    5  0.104  0.003  0.007  0.002  0.000  0.000  0.000  0.000  0.000  0.116
    6  0.135  0.008  0.001  0.007  0.000  0.000  0.000  0.000  0.000  0.150
    7  0.008  0.000  0.000  0.001  0.000  0.000  0.000  0.000  0.000  0.008
    8  0.003  0.000  0.000  0.000  0.000  0.000  0.000  0.000  0.000  0.003
    9  0.000  0.000  0.000  0.000  0.000  0.000  0.000  0.000  0.000  0.000
   10  0.000  0.000  0.000  0.000  0.000  0.000  0.000  0.000  0.000  0.000
   11  0.000  0.000  0.000  0.000  0.000  0.000  0.000  0.000  0.000  0.000
   12  0.000  0.000  0.000  0.000  0.000  0.000  0.000  0.000  0.000  0.000
   13  0.001  0.018  0.009  0.077  0.000  0.000  0.000  0.000  0.000  0.105
   14  0.000  0.008  0.000  0.009  0.000  0.000  0.000  0.000  0.000  0.017
   15  0.000  0.020  0.024  0.353  0.000  0.000  0.000  0.000  0.000  0.397
   16  0.000  0.008  0.002  0.008  0.000  0.000  0.000  0.000  0.000  0.018
   17  0.000  0.000  0.000  0.001  0.000  0.000  0.000  0.000  0.000  0.001
   18  0.000  0.000  0.000  0.000  0.000  0.000  0.000  0.000  0.000  0.000
tot    0.326  0.069  0.044  0.459  0.000  0.000  0.000  0.000  0.000  0.898
 
band    10 # energy  -12.79472035 # occ.  2.00000000
 
ion      s     py     pz     px    dxy    dyz    dz2    dxz  x2-y2    tot
    1  0.000  0.000  0.000  0.000  0.000  0.000  0.000  0.000  0.000  0.000
    2  0.001  0.000  0.000  0.000  0.000  0.000  0.000  0.000  0.000  0.001
    3  0.000  0.000  0.000  0.000  0.000  0.000  0.000  0.000  0.000  0.000
    4  0.000  0.000  0.000  0.000  0.000  0.000  0.000  0.000  0.000  0.000
    5  0.000  0.000  0.000  0.000  0.000  0.000  0.000  0.000  0.000  0.000
    6  0.000  0.000  0.000  0.000  0.000  0.000  0.000  0.000  0.000  0.000
    7  0.005  0.000  0.000  0.001  0.000  0.000  0.000  0.000  0.000  0.006
    8  0.006  0.000  0.000  0.000  0.000  0.000  0.000  0.000  0.000  0.006
    9  0.112  0.000  0.004  0.002  0.000  0.000  0.000  0.000  0.000  0.118
   10  0.140  0.008  0.002  0.003  0.000  0.000  0.000  0.000  0.000  0.153
   11  0.029  0.000  0.002  0.000  0.000  0.000  0.000  0.000  0.000  0.032
   12  0.006  0.001  0.000  0.000  0.000  0.000  0.000  0.000  0.000  0.007
   13  0.000  0.001  0.000  0.003  0.000  0.000  0.000  0.000  0.000  0.005
   14  0.000  0.000  0.000  0.000  0.000  0.000  0.000  0.000  0.000  0.000
   15  0.000  0.000  0.000  0.000  0.000  0.000  0.000  0.000  0.000  0.000
   16  0.000  0.014  0.002  0.002  0.000  0.000  0.000  0.000  0.000  0.019
   17  0.002  0.133  0.030  0.262  0.000  0.000  0.000  0.000  0.000  0.427
   18  0.000  0.012  0.020  0.039  0.000  0.000  0.000  0.000  0.000  0.071
tot    0.301  0.170  0.061  0.314  0.000  0.000  0.000  0.000  0.000  0.847
 
band    11 # energy  -12.60177400 # occ.  2.00000000
 
ion      s     py     pz     px    dxy    dyz    dz2    dxz  x2-y2    tot
    1  0.000  0.000  0.000  0.000  0.000  0.000  0.000  0.000  0.000  0.000
    2  0.001  0.000  0.000  0.000  0.000  0.000  0.000  0.000  0.000  0.001
    3  0.146  0.009  0.002  0.006  0.000  0.000  0.000  0.000  0.000  0.163
    4  0.138  0.002  0.007  0.006  0.000  0.000  0.000  0.000  0.000  0.153
    5  0.007  0.000  0.001  0.000  0.000  0.000  0.000  0.000  0.000  0.008
    6  0.006  0.000  0.000  0.000  0.000  0.000  0.000  0.000  0.000  0.007
    7  0.009  0.000  0.000  0.001  0.000  0.000  0.000  0.000  0.000  0.010
    8  0.001  0.000  0.000  0.000  0.000  0.000  0.000  0.000  0.000  0.001
    9  0.000  0.000  0.000  0.000  0.000  0.000  0.000  0.000  0.000  0.000
   10  0.001  0.000  0.000  0.000  0.000  0.000  0.000  0.000  0.000  0.001
   11  0.008  0.000  0.000  0.000  0.000  0.000  0.000  0.000  0.000  0.009
   12  0.003  0.000  0.000  0.000  0.000  0.000  0.000  0.000  0.000  0.003
   13  0.000  0.000  0.000  0.003  0.000  0.000  0.000  0.000  0.000  0.003
   14  0.000  0.423  0.051  0.000  0.000  0.000  0.000  0.000  0.000  0.475
   15  0.000  0.000  0.003  0.019  0.000  0.000  0.000  0.000  0.000  0.022
   16  0.000  0.005  0.000  0.018  0.000  0.000  0.000  0.000  0.000  0.024
   17  0.000  0.002  0.000  0.000  0.000  0.000  0.000  0.000  0.000  0.002
   18  0.000  0.005  0.016  0.001  0.000  0.000  0.000  0.000  0.000  0.022
tot    0.320  0.447  0.081  0.055  0.000  0.000  0.000  0.000  0.000  0.903
 
band    12 # energy  -12.50879220 # occ.  2.00000000
 
ion      s     py     pz     px    dxy    dyz    dz2    dxz  x2-y2    tot
    1  0.123  0.012  0.000  0.001  0.000  0.000  0.000  0.000  0.000  0.136
    2  0.108  0.003  0.003  0.007  0.000  0.000  0.000  0.000  0.000  0.122
    3  0.002  0.000  0.000  0.000  0.000  0.000  0.000  0.000  0.000  0.002
    4  0.007  0.000  0.001  0.000  0.000  0.000  0.000  0.000  0.000  0.007
    5  0.049  0.001  0.002  0.002  0.000  0.000  0.000  0.000  0.000  0.053
    6  0.024  0.002  0.001  0.001  0.000  0.000  0.000  0.000  0.000  0.027
    7  0.004  0.000  0.000  0.000  0.000  0.000  0.000  0.000  0.000  0.004
    8  0.000  0.000  0.000  0.000  0.000  0.000  0.000  0.000  0.000  0.000
    9  0.000  0.000  0.000  0.000  0.000  0.000  0.000  0.000  0.000  0.000
   10  0.000  0.000  0.000  0.000  0.000  0.000  0.000  0.000  0.000  0.000
   11  0.002  0.000  0.000  0.000  0.000  0.000  0.000  0.000  0.000  0.002
   12  0.001  0.000  0.000  0.000  0.000  0.000  0.000  0.000  0.000  0.001
   13  0.000  0.098  0.020  0.273  0.000  0.000  0.000  0.000  0.000  0.392
   14  0.000  0.013  0.001  0.005  0.000  0.000  0.000  0.000  0.000  0.019
   15  0.000  0.000  0.042  0.078  0.000  0.000  0.000  0.000  0.000  0.120
   16  0.000  0.000  0.004  0.009  0.000  0.000  0.000  0.000  0.000  0.013
   17  0.000  0.000  0.000  0.000  0.000  0.000  0.000  0.000  0.000  0.001
   18  0.000  0.003  0.002  0.001  0.000  0.000  0.000  0.000  0.000  0.005
tot    0.319  0.131  0.076  0.378  0.000  0.000  0.000  0.000  0.000  0.904
 
band    13 # energy  -10.42154888 # occ.  2.00000000
 
ion      s     py     pz     px    dxy    dyz    dz2    dxz  x2-y2    tot
    1  0.005  0.000  0.000  0.000  0.000  0.000  0.000  0.000  0.000  0.005
    2  0.013  0.000  0.000  0.000  0.000  0.000  0.000  0.000  0.000  0.013
    3  0.009  0.000  0.000  0.000  0.000  0.000  0.000  0.000  0.000  0.009
    4  0.004  0.000  0.000  0.000  0.000  0.000  0.000  0.000  0.000  0.005
    5  0.003  0.000  0.000  0.000  0.000  0.000  0.000  0.000  0.000  0.003
    6  0.002  0.000  0.000  0.000  0.000  0.000  0.000  0.000  0.000  0.002
    7  0.017  0.001  0.000  0.000  0.000  0.000  0.000  0.000  0.000  0.019
    8  0.019  0.002  0.000  0.001  0.000  0.000  0.000  0.000  0.000  0.022
    9  0.016  0.000  0.000  0.000  0.000  0.000  0.000  0.000  0.000  0.017
   10  0.002  0.000  0.001  0.000  0.000  0.000  0.000  0.000  0.000  0.003
   11  0.015  0.001  0.000  0.000  0.000  0.000  0.000  0.000  0.000  0.017
   12  0.014  0.001  0.001  0.000  0.000  0.000  0.000  0.000  0.000  0.016
   13  0.011  0.038  0.004  0.023  0.000  0.000  0.000  0.000  0.000  0.076
   14  0.013  0.006  0.013  0.026  0.000  0.000  0.000  0.000  0.000  0.058
   15  0.002  0.005  0.013  0.002  0.000  0.000  0.000  0.000  0.000  0.022
   16  0.022  0.028  0.008  0.136  0.000  0.000  0.000  0.000  0.000  0.194
   17  0.008  0.014  0.042  0.016  0.000  0.000  0.000  0.000  0.000  0.078
   18  0.016  0.051  0.053  0.032  0.000  0.000  0.000  0.000  0.000  0.151
tot    0.189  0.149  0.135  0.238  0.000  0.000  0.000  0.000  0.000  0.711
 
band    14 # energy   -9.74093215 # occ.  2.00000000
 
ion      s     py     pz     px    dxy    dyz    dz2    dxz  x2-y2    tot
    1  0.001  0.001  0.000  0.001  0.000  0.000  0.000  0.000  0.000  0.003
    2  0.000  0.000  0.000  0.000  0.000  0.000  0.000  0.000  0.000  0.000
    3  0.004  0.001  0.000  0.001  0.000  0.000  0.000  0.000  0.000  0.006
    4  0.001  0.000  0.001  0.000  0.000  0.000  0.000  0.000  0.000  0.002
    5  0.001  0.000  0.000  0.000  0.000  0.000  0.000  0.000  0.000  0.001
    6  0.000  0.000  0.000  0.000  0.000  0.000  0.000  0.000  0.000  0.000
    7  0.021  0.003  0.000  0.000  0.000  0.000  0.000  0.000  0.000  0.024
    8  0.018  0.002  0.000  0.002  0.000  0.000  0.000  0.000  0.000  0.021
    9  0.004  0.000  0.000  0.000  0.000  0.000  0.000  0.000  0.000  0.004
   10  0.001  0.001  0.001  0.002  0.000  0.000  0.000  0.000  0.000  0.004
   11  0.024  0.002  0.000  0.000  0.000  0.000  0.000  0.000  0.000  0.027
   12  0.029  0.002  0.001  0.001  0.000  0.000  0.000  0.000  0.000  0.033
   13  0.001  0.013  0.010  0.000  0.000  0.000  0.000  0.000  0.000  0.023
   14  0.000  0.022  0.000  0.001  0.000  0.000  0.000  0.000  0.000  0.024
   15  0.000  0.002  0.003  0.000  0.000  0.000  0.000  0.000  0.000  0.006
   16  0.027  0.024  0.003  0.194  0.000  0.000  0.000  0.000  0.000  0.249
   17  0.002  0.015  0.006  0.003  0.000  0.000  0.000  0.000  0.000  0.027
   18  0.037  0.100  0.087  0.088  0.000  0.000  0.000  0.000  0.000  0.313
tot    0.172  0.188  0.114  0.293  0.000  0.000  0.000  0.000  0.000  0.767
 
band    15 # energy   -9.44511134 # occ.  2.00000000
 
ion      s     py     pz     px    dxy    dyz    dz2    dxz  x2-y2    tot
    1  0.019  0.001  0.000  0.001  0.000  0.000  0.000  0.000  0.000  0.021
    2  0.002  0.001  0.000  0.000  0.000  0.000  0.000  0.000  0.000  0.004
    3  0.004  0.001  0.000  0.000  0.000  0.000  0.000  0.000  0.000  0.005
    4  0.008  0.001  0.001  0.000  0.000  0.000  0.000  0.000  0.000  0.010
    5  0.019  0.000  0.000  0.002  0.000  0.000  0.000  0.000  0.000  0.021
    6  0.019  0.000  0.001  0.002  0.000  0.000  0.000  0.000  0.000  0.022
    7  0.000  0.000  0.000  0.002  0.000  0.000  0.000  0.000  0.000  0.002
    8  0.008  0.000  0.000  0.000  0.000  0.000  0.000  0.000  0.000  0.008
    9  0.017  0.000  0.000  0.000  0.000  0.000  0.000  0.000  0.000  0.018
   10  0.012  0.000  0.001  0.001  0.000  0.000  0.000  0.000  0.000  0.013
   11  0.000  0.000  0.001  0.000  0.000  0.000  0.000  0.000  0.000  0.001
   12  0.000  0.000  0.000  0.000  0.000  0.000  0.000  0.000  0.000  0.000
   13  0.015  0.082  0.006  0.000  0.000  0.000  0.000  0.000  0.000  0.103
   14  0.005  0.000  0.015  0.059  0.000  0.000  0.000  0.000  0.000  0.079
   15  0.026  0.087  0.100  0.008  0.000  0.000  0.000  0.000  0.000  0.220
   16  0.009  0.015  0.007  0.007  0.000  0.000  0.000  0.000  0.000  0.038
   17  0.015  0.065  0.079  0.006  0.000  0.000  0.000  0.000  0.000  0.165
   18  0.000  0.000  0.000  0.017  0.000  0.000  0.000  0.000  0.000  0.017
tot    0.179  0.254  0.210  0.104  0.000  0.000  0.000  0.000  0.000  0.746
 
band    16 # energy   -9.09403796 # occ.  2.00000000
 
ion      s     py     pz     px    dxy    dyz    dz2    dxz  x2-y2    tot
    1  0.016  0.000  0.000  0.002  0.000  0.000  0.000  0.000  0.000  0.018
    2  0.026  0.001  0.000  0.002  0.000  0.000  0.000  0.000  0.000  0.029
    3  0.024  0.003  0.001  0.000  0.000  0.000  0.000  0.000  0.000  0.028
    4  0.026  0.003  0.000  0.000  0.000  0.000  0.000  0.000  0.000  0.030
    5  0.000  0.001  0.001  0.001  0.000  0.000  0.000  0.000  0.000  0.002
    6  0.004  0.000  0.000  0.000  0.000  0.000  0.000  0.000  0.000  0.004
    7  0.000  0.000  0.000  0.000  0.000  0.000  0.000  0.000  0.000  0.001
    8  0.001  0.000  0.001  0.000  0.000  0.000  0.000  0.000  0.000  0.001
    9  0.001  0.000  0.000  0.000  0.000  0.000  0.000  0.000  0.000  0.001
   10  0.001  0.000  0.000  0.000  0.000  0.000  0.000  0.000  0.000  0.001
   11  0.001  0.000  0.001  0.001  0.000  0.000  0.000  0.000  0.000  0.003
   12  0.002  0.000  0.000  0.000  0.000  0.000  0.000  0.000  0.000  0.002
   13  0.029  0.142  0.025  0.048  0.000  0.000  0.000  0.000  0.000  0.244
   14  0.034  0.008  0.080  0.179  0.000  0.000  0.000  0.000  0.000  0.301
   15  0.003  0.010  0.005  0.004  0.000  0.000  0.000  0.000  0.000  0.023
   16  0.001  0.009  0.024  0.007  0.000  0.000  0.000  0.000  0.000  0.041
   17  0.001  0.002  0.008  0.000  0.000  0.000  0.000  0.000  0.000  0.011
   18  0.001  0.004  0.013  0.000  0.000  0.000  0.000  0.000  0.000  0.018
tot    0.170  0.184  0.160  0.245  0.000  0.000  0.000  0.000  0.000  0.759
 
band    17 # energy   -8.97384837 # occ.  2.00000000
 
ion      s     py     pz     px    dxy    dyz    dz2    dxz  x2-y2    tot
    1  0.001  0.000  0.000  0.000  0.000  0.000  0.000  0.000  0.000  0.002
    2  0.001  0.000  0.001  0.001  0.000  0.000  0.000  0.000  0.000  0.003
    3  0.004  0.000  0.000  0.000  0.000  0.000  0.000  0.000  0.000  0.004
    4  0.003  0.000  0.000  0.000  0.000  0.000  0.000  0.000  0.000  0.004
    5  0.020  0.000  0.000  0.002  0.000  0.000  0.000  0.000  0.000  0.023
    6  0.018  0.000  0.001  0.002  0.000  0.000  0.000  0.000  0.000  0.021
    7  0.005  0.002  0.000  0.002  0.000  0.000  0.000  0.000  0.000  0.009
    8  0.000  0.000  0.000  0.001  0.000  0.000  0.000  0.000  0.000  0.001
    9  0.019  0.001  0.000  0.001  0.000  0.000  0.000  0.000  0.000  0.021
   10  0.018  0.000  0.001  0.002  0.000  0.000  0.000  0.000  0.000  0.021
   11  0.002  0.000  0.000  0.000  0.000  0.000  0.000  0.000  0.000  0.003
   12  0.001  0.000  0.001  0.000  0.000  0.000  0.000  0.000  0.000  0.002
   13  0.000  0.000  0.000  0.016  0.000  0.000  0.000  0.000  0.000  0.017
   14  0.009  0.004  0.031  0.003  0.000  0.000  0.000  0.000  0.000  0.047
   15  0.027  0.121  0.095  0.001  0.000  0.000  0.000  0.000  0.000  0.244
   16  0.001  0.002  0.001  0.053  0.000  0.000  0.000  0.000  0.000  0.057
   17  0.022  0.096  0.119  0.002  0.000  0.000  0.000  0.000  0.000  0.238
   18  0.003  0.007  0.032  0.002  0.000  0.000  0.000  0.000  0.000  0.044
tot    0.154  0.233  0.282  0.090  0.000  0.000  0.000  0.000  0.000  0.759
 
band    18 # energy   -8.44157131 # occ.  2.00000000
 
ion      s     py     pz     px    dxy    dyz    dz2    dxz  x2-y2    tot
    1  0.011  0.000  0.000  0.003  0.000  0.000  0.000  0.000  0.000  0.014
    2  0.011  0.001  0.000  0.002  0.000  0.000  0.000  0.000  0.000  0.014
    3  0.007  0.001  0.000  0.000  0.000  0.000  0.000  0.000  0.000  0.009
    4  0.007  0.002  0.000  0.000  0.000  0.000  0.000  0.000  0.000  0.009
    5  0.006  0.000  0.000  0.001  0.000  0.000  0.000  0.000  0.000  0.008
    6  0.007  0.000  0.000  0.001  0.000  0.000  0.000  0.000  0.000  0.009
    7  0.005  0.002  0.000  0.001  0.000  0.000  0.000  0.000  0.000  0.008
    8  0.004  0.000  0.000  0.001  0.000  0.000  0.000  0.000  0.000  0.005
    9  0.004  0.000  0.000  0.000  0.000  0.000  0.000  0.000  0.000  0.004
   10  0.008  0.001  0.000  0.002  0.000  0.000  0.000  0.000  0.000  0.011
   11  0.006  0.001  0.001  0.000  0.000  0.000  0.000  0.000  0.000  0.008
   12  0.004  0.000  0.000  0.001  0.000  0.000  0.000  0.000  0.000  0.006
   13  0.015  0.111  0.035  0.017  0.000  0.000  0.000  0.000  0.000  0.179
   14  0.011  0.006  0.060  0.037  0.000  0.000  0.000  0.000  0.000  0.114
   15  0.012  0.079  0.020  0.000  0.000  0.000  0.000  0.000  0.000  0.111
   16  0.008  0.004  0.000  0.076  0.000  0.000  0.000  0.000  0.000  0.089
   17  0.007  0.043  0.053  0.002  0.000  0.000  0.000  0.000  0.000  0.105
   18  0.008  0.014  0.028  0.045  0.000  0.000  0.000  0.000  0.000  0.095
tot    0.140  0.268  0.200  0.189  0.000  0.000  0.000  0.000  0.000  0.796
 
band    19 # energy   -7.66249225 # occ.  2.00000000
 
ion      s     py     pz     px    dxy    dyz    dz2    dxz  x2-y2    tot
    1  0.002  0.001  0.000  0.001  0.000  0.000  0.000  0.000  0.000  0.004
    2  0.000  0.000  0.000  0.000  0.000  0.000  0.000  0.000  0.000  0.000
    3  0.000  0.000  0.000  0.000  0.000  0.000  0.000  0.000  0.000  0.001
    4  0.003  0.002  0.001  0.001  0.000  0.000  0.000  0.000  0.000  0.006
    5  0.000  0.000  0.000  0.000  0.000  0.000  0.000  0.000  0.000  0.000
    6  0.000  0.000  0.000  0.000  0.000  0.000  0.000  0.000  0.000  0.000
    7  0.000  0.000  0.009  0.000  0.000  0.000  0.000  0.000  0.000  0.009
    8  0.000  0.001  0.009  0.000  0.000  0.000  0.000  0.000  0.000  0.010
    9  0.000  0.000  0.000  0.000  0.000  0.000  0.000  0.000  0.000  0.001
   10  0.000  0.000  0.000  0.000  0.000  0.000  0.000  0.000  0.000  0.001
   11  0.000  0.000  0.000  0.000  0.000  0.000  0.000  0.000  0.000  0.001
   12  0.000  0.000  0.000  0.000  0.000  0.000  0.000  0.000  0.000  0.000
   13  0.000  0.024  0.001  0.000  0.000  0.000  0.000  0.000  0.000  0.025
   14  0.001  0.001  0.027  0.012  0.000  0.000  0.000  0.000  0.000  0.041
   15  0.000  0.001  0.001  0.000  0.000  0.000  0.000  0.000  0.000  0.002
   16  0.000  0.076  0.489  0.002  0.000  0.000  0.000  0.000  0.000  0.566
   17  0.000  0.015  0.009  0.017  0.000  0.000  0.000  0.000  0.000  0.041