<?xml version="1.0" encoding="ISO-8859-1"?>
<modeling>
 <generator>
  <i name="program" type="string">vasp </i>
  <i name="version" type="string">5.4.4.18Apr17-6-g9f103f2a35  </i>
  <i name="subversion" type="string">(build Sep 04 2019 18:34:39) complex            parallel </i>
  <i name="platform" type="string">LinuxIFC </i>
  <i name="date" type="string">2019 09 04 </i>
  <i name="time" type="string">17:58:27 </i>
 </generator>
 <incar>
  <i type="string" name="SYSTEM"> VaspCalc</i>
  <i type="int" name="ISTART">     1</i>
  <i type="string" name="PREC">med</i>
  <i type="string" name="ALGO"> Fast</i>
  <i type="int" name="ISPIN">     1</i>
  <i type="int" name="NELM">   400</i>
  <i type="int" name="NELMIN">     4</i>
  <i type="int" name="IBRION">    -1</i>
  <i name="EDIFF">      0.00000100</i>
  <i type="int" name="NSW">   100</i>
  <i type="int" name="ISMEAR">     0</i>
  <i name="SIGMA">      0.10000000</i>
  <i type="int" name="NWRITE">     1</i>
  <i type="logical" name="LWAVE"> F  </i>
  <i type="logical" name="LCHARG"> F  </i>
  <i type="int" name="LORBIT">    11</i>
  <v type="int" name="KPOINT_BSE">    -1     0     0     0</v>
  <i type="int" name="NELM">   400</i>
  <i type="logical" name="LDIPOL"> T  </i>
  <i type="int" name="IDIPOL">     4</i>
  <v name="DIPOL">      0.50000000      0.50000000      0.50000000</v>
 </incar>
 <structure name="primitive_cell" >
  <crystal>
   <varray name="basis" >
    <v>      20.00000000       0.00000000       0.00000000 </v>
    <v>       0.00000000      20.00000000       0.00000000 </v>
    <v>       0.00000000       0.00000000      20.00000000 </v>
   </varray>
   <i name="volume">   8000.00000000 </i>
   <varray name="rec_basis" >
    <v>       0.05000000       0.00000000       0.00000000 </v>
    <v>       0.00000000       0.05000000       0.00000000 </v>
    <v>       0.00000000       0.00000000       0.05000000 </v>
   </varray>
  </crystal>
  <varray name="positions" >
   <v>      -0.48303956       0.48231771       0.42450384 </v>
   <v>      -0.46068766      -0.47473274       0.42129739 </v>
   <v>      -0.41749591      -0.48250704       0.44267829 </v>
   <v>       0.46046439       0.41406651       0.47018254 </v>
   <v>       0.49542619      -0.43038154       0.47781379 </v>
   <v>       0.41832169       0.43807436       0.47809879 </v>
   <v>      -0.49118241       0.44253796      -0.44805986 </v>
   <v>       0.44818364       0.37077486       0.45331244 </v>
   <v>       0.46704339      -0.41480074      -0.48442976 </v>
   <v>      -0.38932896       0.48867021      -0.45702956 </v>
   <v>      -0.35631286      -0.49554419      -0.48963226 </v>
   <v>      -0.49041156      -0.48551269      -0.42400856 </v>
   <v>      -0.46851466       0.47185586      -0.41671716 </v>
   <v>       0.39097829      -0.46184444      -0.49368261 </v>
   <v>       0.36007474      -0.49887749       0.49787849 </v>
   <v>       0.47029514      -0.36684739      -0.48418125 </v>
   <v>      -0.31797336       0.47599011      -0.48460121 </v>
   <v>       0.32000000       0.49750456      -0.46229341 </v>
  </varray>
 </structure>
 <varray name="primitive_index" >
  <v type="int" >        1 </v>
  <v type="int" >       13 </v>
  <v type="int" >        2 </v>
  <v type="int" >       16 </v>
  <v type="int" >       11 </v>
  <v type="int" >        7 </v>
  <v type="int" >        4 </v>
  <v type="int" >        8 </v>
  <v type="int" >       18 </v>
  <v type="int" >        5 </v>
  <v type="int" >       15 </v>
  <v type="int" >        3 </v>
  <v type="int" >       14 </v>
  <v type="int" >       10 </v>
  <v type="int" >       17 </v>
  <v type="int" >       12 </v>
  <v type="int" >        6 </v>
  <v type="int" >        9 </v>
 </varray>
 <kpoints>
  <generation param="Gamma">
   <v type="int" name="divisions">       1        1        1 </v>
   <v name="usershift">      0.00000000       0.00000000       0.00000000 </v>
   <v name="genvec1">      1.00000000       0.00000000       0.00000000 </v>
   <v name="genvec2">      0.00000000       1.00000000       0.00000000 </v>
   <v name="genvec3">      0.00000000       0.00000000       1.00000000 </v>
   <v name="shift">      0.00000000       0.00000000       0.00000000 </v>
  </generation>
  <varray name="kpointlist" >
   <v>       0.00000000       0.00000000       0.00000000 </v>
  </varray>
  <varray name="weights" >
   <v>       1.00000000 </v>
  </varray>
 </kpoints>
 <parameters>
  <separator name="general" >
   <i type="string" name="SYSTEM">VaspCalc</i>
   <i type="logical" name="LCOMPAT"> F  </i>
  </separator>
  <separator name="electronic" >
   <i type="string" name="PREC">med</i>
   <i name="ENMAX">    400.00000000</i>
   <i name="ENAUG">    605.39200000</i>
   <i name="EDIFF">      0.00000100</i>
   <i type="int" name="IALGO">    68</i>
   <i type="int" name="IWAVPR">    10</i>
   <i type="int" name="NBANDS">    36</i>
   <i name="NELECT">     48.00000000</i>
   <i type="int" name="TURBO">     0</i>
   <i type="int" name="IRESTART">     0</i>
   <i type="int" name="NREBOOT">     0</i>
   <i type="int" name="NMIN">     0</i>
   <i name="EREF">      0.00000000</i>
   <separator name="electronic smearing" >
    <i type="int" name="ISMEAR">     0</i>
    <i name="SIGMA">      0.10000000</i>
    <i name="KSPACING">      0.50000000</i>
    <i type="logical" name="KGAMMA"> T  </i>
   </separator>
   <separator name="electronic projectors" >
    <i type="logical" name="LREAL"> F  </i>
    <v name="ROPT">      0.00000000      0.00000000</v>
    <i type="int" name="LMAXPAW">  -100</i>
    <i type="int" name="LMAXMIX">     2</i>
    <i type="logical" name="NLSPLINE"> F  </i>
   </separator>
   <separator name="electronic startup" >
    <i type="int" name="ISTART">     0</i>
    <i type="int" name="ICHARG">     2</i>
    <i type="int" name="INIWAV">     1</i>
   </separator>
   <separator name="electronic spin" >
    <i type="int" name="ISPIN">     1</i>
    <i type="logical" name="LNONCOLLINEAR"> F  </i>
    <v name="MAGMOM">      1.00000000      1.00000000      1.00000000      1.00000000      1.00000000      1.00000000      1.00000000      1.00000000      1.00000000      1.00000000      1.00000000      1.00000000      1.00000000      1.00000000      1.00000000      1.00000000      1.00000000      1.00000000</v>
    <i name="NUPDOWN">     -1.00000000</i>
    <i type="logical" name="LSORBIT"> F  </i>
    <v name="SAXIS">      0.00000000      0.00000000      1.00000000</v>
    <i type="logical" name="LSPIRAL"> F  </i>
    <v name="QSPIRAL">      0.00000000      0.00000000      0.00000000</v>
    <i type="logical" name="LZEROZ"> F  </i>
   </separator>
   <separator name="electronic exchange-correlation" >
    <i type="logical" name="LASPH"> F  </i>
    <i type="logical" name="LMETAGGA"> F  </i>
   </separator>
   <separator name="electronic convergence" >
    <i type="int" name="NELM">   400</i>
    <i type="int" name="NELMDL">     0</i>
    <i type="int" name="NELMIN">     4</i>
    <i name="ENINI">    400.00000000</i>
    <separator name="electronic convergence detail" >
     <i type="logical" name="LDIAG"> T  </i>
     <i type="logical" name="LSUBROT"> F  </i>
     <i name="WEIMIN">      0.00000000</i>
     <i name="EBREAK">      0.00000001</i>
     <i name="DEPER">      0.30000000</i>
     <i type="int" name="NRMM">     4</i>
     <i name="TIME">      0.40000000</i>
    </separator>
   </separator>
   <separator name="electronic mixer" >
    <i name="AMIX">      0.40000000</i>
    <i name="BMIX">      1.00000000</i>
    <i name="AMIN">      0.10000000</i>
    <i name="AMIX_MAG">      1.60000000</i>
    <i name="BMIX_MAG">      1.00000000</i>
    <separator name="electronic mixer details" >
     <i type="int" name="IMIX">     4</i>
     <i type="logical" name="MIXFIRST"> F  </i>
     <i type="int" name="MAXMIX">   -45</i>
     <i name="WC">    100.00000000</i>
     <i type="int" name="INIMIX">     1</i>
     <i type="int" name="MIXPRE">     1</i>
     <i type="int" name="MREMOVE">     5</i>
    </separator>
   </separator>
   <separator name="electronic dipolcorrection" >
    <i type="logical" name="LDIPOL"> T  </i>
    <i type="logical" name="LMONO"> F  </i>
    <i type="int" name="IDIPOL">     4</i>
    <i name="EPSILON">      1.00000000</i>
    <v name="DIPOL">      0.50000000      0.50000000      0.50000000</v>
    <i name="EFIELD">      0.00000000</i>
   </separator>
  </separator>
  <separator name="grids" >
   <i type="int" name="NGX">    98</i>
   <i type="int" name="NGY">    98</i>
   <i type="int" name="NGZ">    98</i>
   <i type="int" name="NGXF">   160</i>
   <i type="int" name="NGYF">   160</i>
   <i type="int" name="NGZF">   160</i>
   <i type="logical" name="ADDGRID"> F  </i>
  </separator>
  <separator name="ionic" >
   <i type="int" name="NSW">   100</i>
   <i type="int" name="IBRION">    -1</i>
   <i type="int" name="MDALGO">     0</i>
   <i type="int" name="ISIF">     2</i>
   <i name="PSTRESS">      0.00000000</i>
   <i name="EDIFFG">      0.00001000</i>
   <i type="int" name="NFREE">     0</i>
   <i name="POTIM">      0.50000000</i>
   <i name="SMASS">     -3.00000000</i>
   <i name="SCALEE">      1.00000000</i>
  </separator>
  <separator name="ionic md" >
   <i name="TEBEG">      0.00010000</i>
   <i name="TEEND">      0.00010000</i>
   <i type="int" name="NBLOCK">     1</i>
   <i type="int" name="KBLOCK">   100</i>
   <i type="int" name="NPACO">   256</i>
   <i name="APACO">     16.00000000</i>
  </separator>
  <separator name="symmetry" >
   <i type="int" name="ISYM">     2</i>
   <i name="SYMPREC">      0.00001000</i>
  </separator>
  <separator name="dos" >
   <i type="int" name="LORBIT">    11</i>
   <v name="RWIGS">     -1.00000000     -1.00000000</v>
   <i type="int" name="NEDOS">   301</i>
   <i name="EMIN">     10.00000000</i>
   <i name="EMAX">    -10.00000000</i>
   <i name="EFERMI">      0.00000000</i>
  </separator>
  <separator name="writing" >
   <i type="int" name="NWRITE">     1</i>
   <i type="logical" name="LWAVE"> F  </i>
   <i type="logical" name="LDOWNSAMPLE"> F  </i>
   <i type="logical" name="LCHARG"> F  </i>
   <i type="logical" name="LPARD"> F  </i>
   <i type="logical" name="LVTOT"> F  </i>
   <i type="logical" name="LVHAR"> F  </i>
   <i type="logical" name="LELF"> F  </i>
   <i type="logical" name="LOPTICS"> F  </i>
   <v name="STM">      0.00000000      0.00000000      0.00000000      0.00000000      0.00000000      0.00000000      0.00000000</v>
  </separator>
  <separator name="performance" >
   <i type="int" name="NPAR">     4</i>
   <i type="int" name="NSIM">     4</i>
   <i type="int" name="NBLK">    -1</i>
   <i type="logical" name="LPLANE"> T  </i>
   <i type="logical" name="LSCALAPACK"> T  </i>
   <i type="logical" name="LSCAAWARE"> F  </i>
   <i type="logical" name="LSCALU"> F  </i>
   <i type="logical" name="LASYNC"> F  </i>
   <i type="logical" name="LORBITALREAL"> F  </i>
  </separator>
  <separator name="miscellaneous" >
   <i type="int" name="IDIOT">     3</i>
   <i type="int" name="ISPECIAL">     0</i>
   <i type="logical" name="LMUSIC"> F  </i>
   <v name="POMASS">      1.00000000     16.00000000</v>
   <v name="DARWINR">      0.00000000      0.00000000</v>
   <v name="DARWINV">      1.00000000      1.00000000</v>
   <i type="logical" name="LCORR"> T  </i>
  </separator>
  <i type="logical" name="GGA_COMPAT"> T  </i>
  <i type="logical" name="LBERRY"> F  </i>
  <i type="int" name="ICORELEVEL">     0</i>
  <i type="logical" name="LDAU"> F  </i>
  <i type="int" name="I_CONSTRAINED_M">     0</i>
  <separator name="electronic exchange-correlation" >
   <i type="string" name="GGA">--</i>
   <i type="int" name="VOSKOWN">     0</i>
   <i type="logical" name="LHFCALC"> F  </i>
   <i type="string" name="PRECFOCK"></i>
   <i type="logical" name="LSYMGRAD"> F  </i>
   <i type="logical" name="LHFONE"> F  </i>
   <i type="logical" name="LRHFCALC"> F  </i>
   <i type="logical" name="LTHOMAS"> F  </i>
   <i type="logical" name="LMODELHF"> F  </i>
   <i name="ENCUT4O">     -1.00000000</i>
   <i type="int" name="EXXOEP">     0</i>
   <i type="int" name="FOURORBIT">     0</i>
   <i name="AEXX">      0.00000000</i>
   <i name="HFALPHA">      0.00000000</i>
   <i name="MCALPHA">      0.00000000</i>
   <i name="ALDAX">      1.00000000</i>
   <i name="AGGAX">      1.00000000</i>
   <i name="ALDAC">      1.00000000</i>
   <i name="AGGAC">      1.00000000</i>
   <i type="int" name="NKREDX">     1</i>
   <i type="int" name="NKREDY">     1</i>
   <i type="int" name="NKREDZ">     1</i>
   <i type="logical" name="SHIFTRED"> F  </i>
   <i type="logical" name="ODDONLY"> F  </i>
   <i type="logical" name="EVENONLY"> F  </i>
   <i type="int" name="LMAXFOCK">     0</i>
   <i type="int" name="NMAXFOCKAE">     0</i>
   <i type="logical" name="LFOCKAEDFT"> F  </i>
   <i name="HFSCREEN">      0.00000000</i>
   <i name="HFSCREENC">      0.00000000</i>
   <i type="int" name="NBANDSGWLOW">     0</i>
  </separator>
  <separator name="vdW DFT" >
   <i type="logical" name="LUSE_VDW"> F  </i>
   <i name="Zab_VDW">     -0.84910000</i>
   <i name="PARAM1">      0.12340000</i>
   <i name="PARAM2">      1.00000000</i>
   <i name="PARAM3">      0.00000000</i>
  </separator>
  <separator name="model GW" >
   <i type="int" name="MODEL_GW">     0</i>
   <i name="MODEL_EPS0">    266.66666667</i>
   <i name="MODEL_ALPHA">      1.00000000</i>
  </separator>
  <separator name="linear response parameters" >
   <i type="logical" name="LEPSILON"> F  </i>
   <i type="logical" name="LRPA"> F  </i>
   <i type="logical" name="LNABLA"> F  </i>
   <i type="logical" name="LVEL"> F  </i>
   <i type="int" name="KINTER">     0</i>
   <i name="CSHIFT">      0.10000000</i>
   <i name="OMEGAMAX">     -1.00000000</i>
   <i name="DEG_THRESHOLD">      0.00200000</i>
   <i name="RTIME">     -0.10000000</i>
   <i name="WPLASMAI">      0.00000000</i>
   <v name="DFIELD">      0.00000000      0.00000000      0.00000000</v>
   <v name="WPLASMA">      0.00000000      0.00000000      0.00000000      0.00000000      0.00000000      0.00000000      0.00000000      0.00000000      0.00000000</v>
  </separator>
  <separator name="orbital magnetization" >
   <i type="logical" name="NUCIND"> F  </i>
   <v name="MAGPOS">      0.00000000      0.00000000      0.00000000</v>
   <i type="logical" name="LNICSALL"> T  </i>
   <i type="logical" name="ORBITALMAG"> F  </i>
   <i type="logical" name="LMAGBLOCH"> F  </i>
   <i type="logical" name="LCHIMAG"> F  </i>
   <i type="logical" name="LGAUGE"> T  </i>
   <i type="int" name="MAGATOM">     0</i>
   <v name="MAGDIPOL">      0.00000000      0.00000000      0.00000000</v>
   <v name="AVECCONST">      0.00000000      0.00000000      0.00000000</v>
  </separator>
  <separator name="response functions" >
   <i type="logical" name="LADDER"> F  </i>
   <i type="logical" name="LRPAFORCE"> F  </i>
   <i type="logical" name="LFXC"> F  </i>
   <i type="logical" name="LHARTREE"> T  </i>
   <i type="int" name="IBSE">     0</i>
   <v type="int" name="KPOINT">    -1     0     0     0</v>
   <i type="logical" name="LTCTE"> F  </i>
   <i type="logical" name="LTETE"> F  </i>
   <i type="logical" name="LTRIPLET"> F  </i>
   <i type="logical" name="LFXCEPS"> F  </i>
   <i type="logical" name="LFXHEG"> F  </i>
   <i type="int" name="NATURALO">     2</i>
   <i type="logical" name="L2ORDER"> F  </i>
   <i type="logical" name="LMP2LT"> F  </i>
   <i type="logical" name="LUSEW"> F  </i>
   <i name="ENCUTGW">     -2.00000000</i>
   <i name="ENCUTGWSOFT">     -2.00000000</i>
   <i name="ENCUTLF">     -1.00000000</i>
   <i type="int" name="LMAXMP2">    -1</i>
   <i name="SCISSOR">      0.00000000</i>
   <i type="int" name="NOMEGA">     0</i>
   <i type="int" name="NOMEGAR">     0</i>
   <i type="int" name="NBANDSGW">    -1</i>
   <i type="int" name="NBANDSO">    -1</i>
   <i type="int" name="NBANDSV">    -1</i>
   <i type="int" name="NELM">   400</i>
   <i type="int" name="NELMHF">     1</i>
   <i type="int" name="DIM">     3</i>
   <i type="int" name="ANTIRES">     0</i>
   <i name="OMEGAMAX">    -30.00000000</i>
   <i name="OMEGAMIN">    -30.00000000</i>
   <i name="OMEGATL">   -200.00000000</i>
   <i type="int" name="OMEGAGRID">   140</i>
   <i name="CSHIFT">     -0.10000000</i>
   <i type="logical" name="SELFENERGY"> F  </i>
   <i type="logical" name="LSPECTRAL"> F  </i>
   <i type="logical" name="LSPECTRALGW"> F  </i>
   <i type="logical" name="LSINGLES"> F  </i>
   <i type="logical" name="LFERMIGW"> F  </i>
   <i type="logical" name="ODDONLYGW"> F  </i>
   <i type="logical" name="EVENONLYGW"> F  </i>
   <i type="int" name="NKREDLFX">     1</i>
   <i type="int" name="NKREDLFY">     1</i>
   <i type="int" name="NKREDLFZ">     1</i>
   <i type="int" name="MAXMEM">  2800</i>
   <i type="int" name="TELESCOPE">     0</i>
   <i type="int" name="TAUPAR">     1</i>
   <i type="int" name="OMEGAPAR">    -1</i>
   <i name="LAMBDA">      1.00000000</i>
  </separator>
  <separator name="External order field" >
   <i name="OFIELD_KAPPA">      0.00000000</i>
   <v name="OFIELD_K">      0.00000000      0.00000000      0.00000000</v>
   <i name="OFIELD_Q6_NEAR">      0.00000000</i>
   <i name="OFIELD_Q6_FAR">      0.00000000</i>
   <i name="OFIELD_A">      0.00000000</i>
  </separator>
 </parameters>
 <atominfo>
  <atoms>      18 </atoms>
  <types>       2 </types>
  <array name="atoms" >
   <dimension dim="1">ion</dimension>
   <field type="string">element</field>
   <field type="int">atomtype</field>
   <set>
    <rc><c>H </c><c>   1</c></rc>
    <rc><c>H </c><c>   1</c></rc>
    <rc><c>H </c><c>   1</c></rc>
    <rc><c>H </c><c>   1</c></rc>
    <rc><c>H </c><c>   1</c></rc>
    <rc><c>H </c><c>   1</c></rc>
    <rc><c>H </c><c>   1</c></rc>
    <rc><c>H </c><c>   1</c></rc>
    <rc><c>H </c><c>   1</c></rc>
    <rc><c>H </c><c>   1</c></rc>
    <rc><c>H </c><c>   1</c></rc>
    <rc><c>H </c><c>   1</c></rc>
    <rc><c>O </c><c>   2</c></rc>
    <rc><c>O </c><c>   2</c></rc>
    <rc><c>O </c><c>   2</c></rc>
    <rc><c>O </c><c>   2</c></rc>
    <rc><c>O </c><c>   2</c></rc>
    <rc><c>O </c><c>   2</c></rc>
   </set>
  </array>
  <array name="atomtypes" >
   <dimension dim="1">type</dimension>
   <field type="int">atomspertype</field>
   <field type="string">element</field>
   <field>mass</field>
   <field>valence</field>
   <field type="string">pseudopotential</field>
   <set>
    <rc><c>  12</c><c>H </c><c>      1.00000000</c><c>      1.00000000</c><c>  PAW_PBE H 15Jun2001                   </c></rc>
    <rc><c>   6</c><c>O </c><c>     16.00000000</c><c>      6.00000000</c><c>  PAW_PBE O 08Apr2002                   </c></rc>
   </set>
  </array>
 </atominfo>
 <structure name="initialpos" >
  <crystal>
   <varray name="basis" >
    <v>      20.00000000       0.00000000       0.00000000 </v>
    <v>       0.00000000      20.00000000       0.00000000 </v>
    <v>       0.00000000       0.00000000      20.00000000 </v>
   </varray>
   <i name="volume">   8000.00000000 </i>
   <varray name="rec_basis" >
    <v>       0.05000000       0.00000000       0.00000000 </v>
    <v>       0.00000000       0.05000000       0.00000000 </v>
    <v>       0.00000000       0.00000000       0.05000000 </v>
   </varray>
  </crystal>
  <varray name="positions" >
   <v>       0.51696044       0.48231771       0.42450384 </v>
   <v>       0.58250409       0.51749296       0.44267829 </v>
   <v>       0.50958844       0.51448731       0.57599144 </v>
   <v>       0.50881759       0.44253796       0.55194014 </v>
   <v>       0.61067104       0.48867021       0.54297044 </v>
   <v>       0.68202664       0.47599011       0.51539879 </v>
   <v>       0.41832169       0.43807436       0.47809879 </v>
   <v>       0.44818364       0.37077486       0.45331244 </v>
   <v>       0.32000000       0.49750456       0.53770659 </v>
   <v>       0.39097829       0.53815556       0.50631739 </v>
   <v>       0.49542619       0.56961846       0.47781379 </v>
   <v>       0.47029514       0.63315261       0.51581875 </v>
   <v>       0.53931234       0.52526726       0.42129739 </v>
   <v>       0.53148534       0.47185586       0.58328284 </v>
   <v>       0.64368714       0.50445581       0.51036774 </v>
   <v>       0.46046439       0.41406651       0.47018254 </v>
   <v>       0.36007474       0.50112251       0.49787849 </v>
   <v>       0.46704339       0.58519926       0.51557024 </v>
  </varray>
  <varray name="velocities" >
   <v>       0.00000000       0.00000000       0.00000000 </v>
   <v>       0.00000000       0.00000000       0.00000000 </v>
   <v>       0.00000000       0.00000000       0.00000000 </v>
   <v>       0.00000000       0.00000000       0.00000000 </v>
   <v>       0.00000000       0.00000000       0.00000000 </v>
   <v>       0.00000000       0.00000000       0.00000000 </v>
   <v>       0.00000000       0.00000000       0.00000000 </v>
   <v>       0.00000000       0.00000000       0.00000000 </v>
   <v>       0.00000000       0.00000000       0.00000000 </v>
   <v>       0.00000000       0.00000000       0.00000000 </v>
   <v>       0.00000000       0.00000000       0.00000000 </v>
   <v>       0.00000000       0.00000000       0.00000000 </v>
   <v>       0.00000000       0.00000000       0.00000000 </v>
   <v>       0.00000000       0.00000000       0.00000000 </v>
   <v>       0.00000000       0.00000000       0.00000000 </v>
   <v>       0.00000000       0.00000000       0.00000000 </v>
   <v>       0.00000000       0.00000000       0.00000000 </v>
   <v>       0.00000000       0.00000000       0.00000000 </v>
  </varray>
 </structure>
 <calculation>
  <scstep>
   <time name="dav">    0.43    0.43</time>
   <time name="total">    0.53    0.53</time>
   <dipole>
    <v name="dipole">      0.00000282       0.00000082      -0.00000082 </v>
    <i name="Tr[quadrupol]">     26.40803677 </i>
    <i name="Echarged">      0.00000000 </i>
    <i name="Edipol_quadrupol">      0.00000000 </i>
    <i name="Eion">      0.00000000 </i>
   </dipole>
   <energy>
    <i name="alphaZ">      1.00913064 </i>
    <i name="ewald">   3088.91719270 </i>
    <i name="hartreedc">  -5244.53645835 </i>
    <i name="XCdc">    195.01756129 </i>
    <i name="pawpsdc">   2104.90519057 </i>
    <i name="pawaedc">  -2115.80374798 </i>
    <i name="eentropy">     -0.11486492 </i>
    <i name="bandstr">   -255.31467205 </i>
    <i name="atom">   2743.32276819 </i>
    <i name="e_fr_energy">    517.40210010 </i>
    <i name="e_wo_entrp">    517.51696502 </i>
    <i name="e_0_energy">    517.45953256 </i>
   </energy>
  </scstep>
  <scstep>
   <time name="dav">    0.56    0.56</time>
   <time name="total">    0.56    0.56</time>
   <dipole>
    <v name="dipole">      0.00000282       0.00000082      -0.00000082 </v>
    <i name="Tr[quadrupol]">     26.40803677 </i>
    <i name="Echarged">      0.00000000 </i>
    <i name="Edipol_quadrupol">      0.00000000 </i>
    <i name="Eion">      0.00000000 </i>
   </dipole>
   <energy>
    <i name="e_fr_energy">    227.92342553 </i>
    <i name="e_wo_entrp">    227.93768079 </i>
    <i name="e_0_energy">    227.93055316 </i>
   </energy>
  </scstep>
  <scstep>
   <time name="dav">    0.55    0.55</time>
   <time name="total">    0.55    0.55</time>
   <dipole>
    <v name="dipole">      0.00000282       0.00000082      -0.00000082 </v>
    <i name="Tr[quadrupol]">     26.40803677 </i>
    <i name="Echarged">      0.00000000 </i>
    <i name="Edipol_quadrupol">      0.00000000 </i>
    <i name="Eion">      0.00000000 </i>
   </dipole>
   <energy>
    <i name="e_fr_energy">    -39.86969764 </i>
    <i name="e_wo_entrp">    -39.86969764 </i>
    <i name="e_0_energy">    -39.86969764 </i>
   </energy>
  </scstep>
  <scstep>
   <time name="dav">    0.48    0.48</time>
   <time name="total">    0.48    0.48</time>
   <dipole>
    <v name="dipole">      0.00000282       0.00000082      -0.00000082 </v>
    <i name="Tr[quadrupol]">     26.40803677 </i>
    <i name="Echarged">      0.00000000 </i>
    <i name="Edipol_quadrupol">      0.00000000 </i>
    <i name="Eion">      0.00000000 </i>
   </dipole>
   <energy>
    <i name="e_fr_energy">    -95.57707796 </i>
    <i name="e_wo_entrp">    -95.57707796 </i>
    <i name="e_0_energy">    -95.57707796 </i>
   </energy>
  </scstep>
  <scstep>
   <time name="dav">    0.42    0.42</time>
   <time name="total">    0.45    0.45</time>
   <dipole>
    <v name="dipole">      0.00000282       0.00000082      -0.00000082 </v>
    <i name="Tr[quadrupol]">     26.40803677 </i>
    <i name="Echarged">      0.00000000 </i>
    <i name="Edipol_quadrupol">      0.00000000 </i>
    <i name="Eion">      0.00000000 </i>
   </dipole>
   <energy>
    <i name="e_fr_energy">    -96.70274653 </i>
    <i name="e_wo_entrp">    -96.70274653 </i>
    <i name="e_0_energy">    -96.70274653 </i>
   </energy>
  </scstep>
  <scstep>
   <time name="diag">    0.07    0.07</time>
   <time name="diis">    0.41    0.41</time>
   <time name="orth">    0.01    0.01</time>
   <time name="total">    0.60    0.60</time>
   <dipole>
    <v name="dipole">      0.07026303       0.04615563      -0.03619912 </v>
    <i name="Tr[quadrupol]">     24.79855507 </i>
    <i name="Echarged">      0.00000000 </i>
    <i name="Edipol_quadrupol">      0.00000000 </i>
    <i name="Eion">      0.00000000 </i>
   </dipole>
   <energy>
    <i name="e_fr_energy">    -87.55219058 </i>
    <i name="e_wo_entrp">    -87.55219058 </i>
    <i name="e_0_energy">    -87.55219058 </i>
   </energy>
  </scstep>
  <scstep>
   <time name="diag">    0.07    0.07</time>
   <time name="diis">    0.41    0.41</time>
   <time name="orth">    0.01    0.01</time>
   <time name="total">    0.60    0.60</time>
   <dipole>
    <v name="dipole">      0.11931868       0.07452130      -0.05344465 </v>
    <i name="Tr[quadrupol]">     23.78237416 </i>
    <i name="Echarged">      0.00000000 </i>
    <i name="Edipol_quadrupol">      0.00000000 </i>
    <i name="Eion">      0.00000000 </i>
   </dipole>
   <energy>
    <i name="e_fr_energy">    -87.17596396 </i>
    <i name="e_wo_entrp">    -87.17596396 </i>
    <i name="e_0_energy">    -87.17596396 </i>
   </energy>
  </scstep>
  <scstep>
   <time name="diag">    0.07    0.07</time>
   <time name="diis">    0.41    0.41</time>
   <time name="orth">    0.01    0.01</time>
   <time name="total">    0.60    0.60</time>
   <dipole>
    <v name="dipole">      0.20760272       0.12267955      -0.08110458 </v>
    <i name="Tr[quadrupol]">     22.00180691 </i>
    <i name="Echarged">      0.00000000 </i>
    <i name="Edipol_quadrupol">      0.00000000 </i>
    <i name="Eion">      0.00000000 </i>
   </dipole>
   <energy>
    <i name="e_fr_energy">    -86.92609700 </i>
    <i name="e_wo_entrp">    -86.92609700 </i>
    <i name="e_0_energy">    -86.92609700 </i>
   </energy>
  </scstep>
  <scstep>
   <time name="diag">    0.07    0.07</time>
   <time name="diis">    0.42    0.42</time>
   <time name="orth">    0.01    0.01</time>
   <time name="total">    0.62    0.62</time>
   <dipole>
    <v name="dipole">      0.24214055       0.14162078      -0.09224865 </v>
    <i name="Tr[quadrupol]">     21.26522492 </i>
    <i name="Echarged">      0.00000000 </i>
    <i name="Edipol_quadrupol">      0.00000000 </i>
    <i name="Eion">      0.00000000 </i>
   </dipole>
   <energy>
    <i name="e_fr_energy">    -86.89300103 </i>
    <i name="e_wo_entrp">    -86.89300103 </i>
    <i name="e_0_energy">    -86.89300103 </i>
   </energy>
  </scstep>
  <scstep>
   <time name="diag">    0.07    0.07</time>
   <time name="diis">    0.41    0.41</time>
   <time name="orth">    0.01    0.01</time>
   <time name="total">    0.60    0.60</time>
   <dipole>
    <v name="dipole">      0.29304588       0.16869385      -0.10592400 </v>
    <i name="Tr[quadrupol]">     20.14885000 </i>
    <i name="Echarged">      0.00000000 </i>
    <i name="Edipol_quadrupol">      0.00000000 </i>
    <i name="Eion">      0.00000000 </i>
   </dipole>
   <energy>
    <i name="e_fr_energy">    -86.88936240 </i>
    <i name="e_wo_entrp">    -86.88936240 </i>
    <i name="e_0_energy">    -86.88936240 </i>
   </energy>
  </scstep>
  <scstep>
   <time name="diag">    0.07    0.07</time>
   <time name="diis">    0.41    0.41</time>
   <time name="orth">    0.01    0.01</time>
   <time name="total">    0.60    0.60</time>
   <dipole>
    <v name="dipole">      0.32315837       0.18475548      -0.11417478 </v>
    <i name="Tr[quadrupol]">     19.42947636 </i>
    <i name="Echarged">      0.00000000 </i>
    <i name="Edipol_quadrupol">      0.00000000 </i>
    <i name="Eion">      0.00000000 </i>
   </dipole>
   <energy>
    <i name="e_fr_energy">    -86.89046225 </i>
    <i name="e_wo_entrp">    -86.89046225 </i>
    <i name="e_0_energy">    -86.89046225 </i>
   </energy>
  </scstep>
  <scstep>
   <time name="diag">    0.07    0.07</time>
   <time name="diis">    0.40    0.40</time>
   <time name="orth">    0.01    0.01</time>
   <time name="total">    0.59    0.59</time>
   <dipole>
    <v name="dipole">      0.35866477       0.20401353      -0.12413227 </v>
    <i name="Tr[quadrupol]">     18.39963926 </i>
    <i name="Echarged">      0.00000000 </i>
    <i name="Edipol_quadrupol">      0.00000000 </i>
    <i name="Eion">      0.00000000 </i>
   </dipole>
   <energy>
    <i name="e_fr_energy">    -86.90451451 </i>
    <i name="e_wo_entrp">    -86.90451451 </i>
    <i name="e_0_energy">    -86.90451451 </i>
   </energy>
  </scstep>
  <scstep>
   <time name="diag">    0.07    0.07</time>
   <time name="diis">    0.39    0.39</time>
   <time name="orth">    0.01    0.01</time>
   <time name="total">    0.59    0.59</time>
   <dipole>
    <v name="dipole">      0.36731226       0.20870031      -0.12619430 </v>
    <i name="Tr[quadrupol]">     18.03680213 </i>
    <i name="Echarged">      0.00000000 </i>
    <i name="Edipol_quadrupol">      0.00000000 </i>
    <i name="Eion">      0.00000000 </i>
   </dipole>
   <energy>
    <i name="e_fr_energy">    -86.91161907 </i>
    <i name="e_wo_entrp">    -86.91161907 </i>
    <i name="e_0_energy">    -86.91161907 </i>
   </energy>
  </scstep>
  <scstep>
   <time name="diag">    0.07    0.07</time>
   <time name="diis">    0.39    0.39</time>
   <time name="orth">    0.01    0.01</time>
   <time name="total">    0.59    0.59</time>
   <dipole>
    <v name="dipole">      0.37233527       0.21142670      -0.12738119 </v>
    <i name="Tr[quadrupol]">     17.76997661 </i>
    <i name="Echarged">      0.00000000 </i>
    <i name="Edipol_quadrupol">      0.00000000 </i>
    <i name="Eion">      0.00000000 </i>
   </dipole>
   <energy>
    <i name="e_fr_energy">    -86.91675676 </i>
    <i name="e_wo_entrp">    -86.91675676 </i>
    <i name="e_0_energy">    -86.91675676 </i>
   </energy>
  </scstep>
  <scstep>
   <time name="diag">    0.07    0.07</time>
   <time name="diis">    0.40    0.40</time>
   <time name="orth">    0.01    0.01</time>
   <time name="total">    0.60    0.60</time>
   <dipole>
    <v name="dipole">      0.37549422       0.21312627      -0.12826368 </v>
    <i name="Tr[quadrupol]">     17.58988224 </i>
    <i name="Echarged">      0.00000000 </i>
    <i name="Edipol_quadrupol">      0.00000000 </i>
    <i name="Eion">      0.00000000 </i>
   </dipole>
   <energy>
    <i name="e_fr_energy">    -86.91963935 </i>
    <i name="e_wo_entrp">    -86.91963935 </i>
    <i name="e_0_energy">    -86.91963935 </i>
   </energy>
  </scstep>
  <scstep>
   <time name="diag">    0.07    0.07</time>
   <time name="diis">    0.39    0.39</time>
   <time name="orth">    0.01    0.01</time>
   <time name="total">    0.59    0.59</time>
   <dipole>
    <v name="dipole">      0.37782943       0.21429029      -0.12889771 </v>
    <i name="Tr[quadrupol]">     17.45997365 </i>
    <i name="Echarged">      0.00000000 </i>
    <i name="Edipol_quadrupol">      0.00000000 </i>
    <i name="Eion">      0.00000000 </i>
   </dipole>
   <energy>
    <i name="e_fr_energy">    -86.92132888 </i>
    <i name="e_wo_entrp">    -86.92132888 </i>
    <i name="e_0_energy">    -86.92132888 </i>
   </energy>
  </scstep>
  <scstep>
   <time name="diag">    0.07    0.07</time>
   <time name="diis">    0.43    0.43</time>
   <time name="orth">    0.01    0.01</time>
   <time name="total">    0.63    0.63</time>
   <dipole>
    <v name="dipole">      0.37942796       0.21514238      -0.12938300 </v>
    <i name="Tr[quadrupol]">     17.40725183 </i>
    <i name="Echarged">      0.00000000 </i>
    <i name="Edipol_quadrupol">      0.00000000 </i>
    <i name="Eion">      0.00000000 </i>
   </dipole>
   <energy>
    <i name="e_fr_energy">    -86.92177738 </i>
    <i name="e_wo_entrp">    -86.92177738 </i>
    <i name="e_0_energy">    -86.92177738 </i>
   </energy>
  </scstep>
  <scstep>
   <time name="diag">    0.07    0.07</time>
   <time name="diis">    0.42    0.42</time>
   <time name="orth">    0.01    0.01</time>
   <time name="total">    0.62    0.62</time>
   <dipole>
    <v name="dipole">      0.38091933       0.21597428      -0.12983315 </v>
    <i name="Tr[quadrupol]">     17.37476799 </i>
    <i name="Echarged">      0.00000000 </i>
    <i name="Edipol_quadrupol">      0.00000000 </i>
    <i name="Eion">      0.00000000 </i>
   </dipole>
   <energy>
    <i name="e_fr_energy">    -86.92206063 </i>
    <i name="e_wo_entrp">    -86.92206063 </i>
    <i name="e_0_energy">    -86.92206063 </i>
   </energy>
  </scstep>
  <scstep>
   <time name="diag">    0.07    0.07</time>
   <time name="diis">    0.38    0.38</time>
   <time name="orth">    0.01    0.01</time>
   <time name="total">    0.58    0.58</time>
   <dipole>
    <v name="dipole">      0.38229504       0.21678264      -0.13027450 </v>
    <i name="Tr[quadrupol]">     17.35176058 </i>
    <i name="Echarged">      0.00000000 </i>
    <i name="Edipol_quadrupol">      0.00000000 </i>
    <i name="Eion">      0.00000000 </i>
   </dipole>
   <energy>
    <i name="e_fr_energy">    -86.92222157 </i>
    <i name="e_wo_entrp">    -86.92222157 </i>
    <i name="e_0_energy">    -86.92222157 </i>
   </energy>
  </scstep>
  <scstep>
   <time name="diag">    0.07    0.07</time>
   <time name="diis">    0.32    0.32</time>
   <time name="orth">    0.01    0.01</time>
   <time name="total">    0.52    0.52</time>
   <dipole>
    <v name="dipole">      0.38302922       0.21725428      -0.13052942 </v>
    <i name="Tr[quadrupol]">     17.34161699 </i>
    <i name="Echarged">      0.00000000 </i>
    <i name="Edipol_quadrupol">      0.00000000 </i>
    <i name="Eion">      0.00000000 </i>
   </dipole>
   <energy>
    <i name="e_fr_energy">    -86.92227822 </i>
    <i name="e_wo_entrp">    -86.92227822 </i>
    <i name="e_0_energy">    -86.92227822 </i>
   </energy>
  </scstep>
  <scstep>
   <time name="diag">    0.07    0.07</time>
   <time name="diis">    0.33    0.33</time>
   <time name="orth">    0.01    0.01</time>
   <time name="total">    0.53    0.53</time>
   <dipole>
    <v name="dipole">      0.38394093       0.21789548      -0.13087103 </v>
    <i name="Tr[quadrupol]">     17.33255874 </i>
    <i name="Echarged">      0.00000000 </i>
    <i name="Edipol_quadrupol">      0.00000000 </i>
    <i name="Eion">      0.00000000 </i>
   </dipole>
   <energy>
    <i name="e_fr_energy">    -86.92232244 </i>
    <i name="e_wo_entrp">    -86.92232244 </i>
    <i name="e_0_energy">    -86.92232244 </i>
   </energy>
  </scstep>
  <scstep>
   <time name="diag">    0.07    0.07</time>
   <time name="diis">    0.31    0.31</time>
   <time name="orth">    0.01    0.01</time>
   <time name="total">    0.52    0.52</time>
   <dipole>
    <v name="dipole">      0.38419507       0.21809766      -0.13097708 </v>
    <i name="Tr[quadrupol]">     17.33056294 </i>
    <i name="Echarged">      0.00000000 </i>
    <i name="Edipol_quadrupol">      0.00000000 </i>
    <i name="Eion">      0.00000000 </i>
   </dipole>
   <energy>
    <i name="e_fr_energy">    -86.92233103 </i>
    <i name="e_wo_entrp">    -86.92233103 </i>
    <i name="e_0_energy">    -86.92233103 </i>
   </energy>
  </scstep>
  <scstep>
   <time name="diag">    0.07    0.07</time>
   <time name="diis">    0.30    0.30</time>
   <time name="orth">    0.01    0.01</time>
   <time name="total">    0.50    0.51</time>
   <dipole>
    <v name="dipole">      0.38440515       0.21827890      -0.13107097 </v>
    <i name="Tr[quadrupol]">     17.32900084 </i>
    <i name="Echarged">      0.00000000 </i>
    <i name="Edipol_quadrupol">      0.00000000 </i>
    <i name="Eion">      0.00000000 </i>
   </dipole>
   <energy>
    <i name="e_fr_energy">    -86.92233671 </i>
    <i name="e_wo_entrp">    -86.92233671 </i>
    <i name="e_0_energy">    -86.92233671 </i>
   </energy>
  </scstep>
  <scstep>
   <time name="diag">    0.07    0.07</time>
   <time name="diis">    0.26    0.26</time>
   <time name="orth">    0.01    0.01</time>
   <time name="total">    0.46    0.46</time>
   <dipole>
    <v name="dipole">      0.38453423       0.21840276      -0.13113368 </v>
    <i name="Tr[quadrupol]">     17.32796876 </i>
    <i name="Echarged">      0.00000000 </i>
    <i name="Edipol_quadrupol">      0.00000000 </i>
    <i name="Eion">      0.00000000 </i>
   </dipole>
   <energy>
    <i name="e_fr_energy">    -86.92233962 </i>
    <i name="e_wo_entrp">    -86.92233962 </i>
    <i name="e_0_energy">    -86.92233962 </i>
   </energy>
  </scstep>
  <scstep>
   <time name="diag">    0.07    0.07</time>
   <time name="diis">    0.29    0.29</time>
   <time name="orth">    0.01    0.01</time>
   <time name="total">    0.49    0.49</time>
   <dipole>
    <v name="dipole">      0.38456895       0.21844307      -0.13115397 </v>
    <i name="Tr[quadrupol]">     17.32762024 </i>
    <i name="Echarged">      0.00000000 </i>
    <i name="Edipol_quadrupol">      0.00000000 </i>
    <i name="Eion">      0.00000000 </i>
   </dipole>
   <energy>
    <i name="e_fr_energy">    -86.92234074 </i>
    <i name="e_wo_entrp">    -86.92234074 </i>
    <i name="e_0_energy">    -86.92234074 </i>
   </energy>
  </scstep>
  <scstep>
   <time name="diag">    0.07    0.07</time>
   <time name="diis">    0.27    0.27</time>
   <time name="orth">    0.01    0.01</time>
   <time name="total">    0.47    0.47</time>
   <dipole>
    <v name="dipole">      0.38460807       0.21849179      -0.13117866 </v>
    <i name="Tr[quadrupol]">     17.32722056 </i>
    <i name="Echarged">      0.00000000 </i>
    <i name="Edipol_quadrupol">      0.00000000 </i>
    <i name="Eion">      0.00000000 </i>
   </dipole>
   <energy>
    <i name="e_fr_energy">    -86.92234229 </i>
    <i name="e_wo_entrp">    -86.92234229 </i>
    <i name="e_0_energy">    -86.92234229 </i>
   </energy>
  </scstep>
  <scstep>
   <time name="diag">    0.07    0.07</time>
   <time name="diis">    0.27    0.27</time>
   <time name="orth">    0.01    0.01</time>
   <time name="total">    0.44    0.44</time>
   <dipole>
    <v name="dipole">      0.38463342       0.21852275      -0.13119437 </v>
    <i name="Tr[quadrupol]">     17.32698418 </i>
    <i name="Echarged">      0.00000000 </i>
    <i name="Edipol_quadrupol">      0.00000000 </i>
    <i name="Eion">      0.00000000 </i>
   </dipole>
   <energy>
    <i name="alphaZ">      1.01120712 </i>
    <i name="ewald">   3088.91719270 </i>
    <i name="hartreedc">  -5456.83462838 </i>
    <i name="XCdc">    205.14226113 </i>
    <i name="pawpsdc">   3375.21545678 </i>
    <i name="pawaedc">  -3387.78663202 </i>
    <i name="eentropy">     -0.00000000 </i>
    <i name="bandstr">   -655.90996864 </i>
    <i name="atom">   2743.32276819 </i>
    <i name="e_fr_energy">    -86.92234311 </i>
    <i name="e_wo_entrp">    -86.92234311 </i>
    <i name="e_0_energy">    -86.92234311 </i>
   </energy>
  </scstep>
  <structure>
   <crystal>
    <varray name="basis" >
     <v>      20.00000118       0.00000000       0.00000000 </v>
     <v>       0.00000000      20.00000118       0.00000000 </v>
     <v>       0.00000000       0.00000000      20.00000118 </v>
    </varray>
    <i name="volume">   8000.00141508 </i>
    <varray name="rec_basis" >
     <v>       0.05000000      -0.00000000      -0.00000000 </v>
     <v>       0.00000000       0.05000000      -0.00000000 </v>
     <v>       0.00000000       0.00000000       0.05000000 </v>
    </varray>
   </crystal>
   <varray name="positions" >
    <v>       0.51696044       0.48231771       0.42450384 </v>
    <v>       0.58250409       0.51749296       0.44267829 </v>
    <v>       0.50958844       0.51448731       0.57599144 </v>
    <v>       0.50881759       0.44253796       0.55194014 </v>
    <v>       0.61067104       0.48867021       0.54297044 </v>
    <v>       0.68202664       0.47599011       0.51539879 </v>
    <v>       0.41832169       0.43807436       0.47809879 </v>
    <v>       0.44818364       0.37077486       0.45331244 </v>
    <v>       0.32000000       0.49750456       0.53770659 </v>
    <v>       0.39097829       0.53815556       0.50631739 </v>
    <v>       0.49542619       0.56961846       0.47781379 </v>
    <v>       0.47029514       0.63315261       0.51581875 </v>
    <v>       0.53931234       0.52526726       0.42129739 </v>
    <v>       0.53148534       0.47185586       0.58328284 </v>
    <v>       0.64368714       0.50445581       0.51036774 </v>
    <v>       0.46046439       0.41406651       0.47018254 </v>
    <v>       0.36007474       0.50112251       0.49787849 </v>
    <v>       0.46704339       0.58519926       0.51557024 </v>
   </varray>
  </structure>
  <varray name="forces" >
   <v>      -0.35571081      -0.52909624       0.02146282 </v>
   <v>       0.61941354      -0.03615144       0.29931002 </v>
   <v>      -0.24138234       0.58359231      -0.04388937 </v>
   <v>      -0.25433650      -0.43789680      -0.38937495 </v>
   <v>      -0.55472113      -0.16882071       0.45125701 </v>
   <v>       0.47180621      -0.30062499      -0.01611801 </v>
   <v>      -0.58777890       0.38978040       0.19004890 </v>
   <v>      -0.06095143      -0.50343565      -0.18995840 </v>
   <v>       3.62506323       0.63658995      -3.15801974 </v>
   <v>       0.15017867       0.67897547       0.61606142 </v>
   <v>       0.40231315      -0.31255389      -0.54702923 </v>
   <v>      -0.02695329       0.53634353       0.06526939 </v>
   <v>      -0.23554993       0.57272102      -0.32903183 </v>
   <v>       0.53166405      -0.15427041       0.45307917 </v>
   <v>       0.04245842       0.45542893      -0.44891217 </v>
   <v>       0.61241037       0.15333714       0.05561424 </v>
   <v>      -3.73460559      -1.27104227       2.51277593 </v>
   <v>      -0.40331772      -0.29287636       0.45745481 </v>
  </varray>
  <varray name="stress" >
   <v>      -1.02172409      -0.08733373       0.51989236 </v>
   <v>      -0.08733373      -0.30151028       0.21967797 </v>
   <v>       0.51989235       0.21967797      -1.19893495 </v>
  </varray>
  <energy>
   <i name="e_fr_energy">    -86.92234311 </i>
   <i name="e_wo_entrp">    -86.92234311 </i>
   <i name="e_0_energy">     -0.00000000 </i>
  </energy>
  <time name="totalsc">   15.50   15.85</time>
 </calculation>
 <calculation>
  <scstep>
   <time name="dav">    0.42    0.42</time>
   <time name="total">    0.54    0.54</time>
   <dipole>
    <v name="dipole">      1.54559030       0.41404082      -1.11512324 </v>
    <i name="Tr[quadrupol]">      7.99583116 </i>
    <i name="Echarged">      0.00000000 </i>
    <i name="Edipol_quadrupol">      0.00000000 </i>
    <i name="Eion">      0.00000000 </i>
   </dipole>
   <energy>
    <i name="alphaZ">      1.02865646 </i>
    <i name="ewald">   3055.54494677 </i>
    <i name="hartreedc">  -5456.83421371 </i>
    <i name="XCdc">    205.14884424 </i>
    <i name="pawpsdc">   3375.21464497 </i>
    <i name="pawaedc">  -3387.78581533 </i>
    <i name="eentropy">     -0.00000000 </i>
    <i name="bandstr">   -658.47060144 </i>
    <i name="atom">   2743.32276819 </i>
    <i name="e_fr_energy">   -122.83076985 </i>
    <i name="e_wo_entrp">   -122.83076985 </i>
    <i name="e_0_energy">   -122.83076985 </i>
   </energy>
  </scstep>
  <scstep>
   <time name="diag">    0.07    0.07</time>
   <time name="diis">    0.46    0.46</time>
   <time name="orth">    0.01    0.01</time>
   <time name="total">    0.65    0.65</time>
   <dipole>
    <v name="dipole">      0.81130600       0.12840155      -0.63151116 </v>
    <i name="Tr[quadrupol]">     13.05368489 </i>
    <i name="Echarged">      0.00000000 </i>
    <i name="Edipol_quadrupol">      0.00000000 </i>
    <i name="Eion">      0.00000000 </i>
   </dipole>
   <energy>
    <i name="e_fr_energy">    -84.43874612 </i>
    <i name="e_wo_entrp">    -84.43874612 </i>
    <i name="e_0_energy">    -84.43874612 </i>
   </energy>
  </scstep>
  <scstep>
   <time name="diag">    0.07    0.07</time>
   <time name="diis">    0.41    0.41</time>
   <time name="orth">    0.01    0.01</time>
   <time name="total">    0.61    0.61</time>
   <dipole>
    <v name="dipole">      0.70460211       0.09945412      -0.44227288 </v>
    <i name="Tr[quadrupol]">     14.30713971 </i>
    <i name="Echarged">      0.00000000 </i>
    <i name="Edipol_quadrupol">      0.00000000 </i>
    <i name="Eion">      0.00000000 </i>
   </dipole>
   <energy>
    <i name="e_fr_energy">    -57.55713370 </i>
    <i name="e_wo_entrp">    -57.55713370 </i>
    <i name="e_0_energy">    -57.55713370 </i>
   </energy>
  </scstep>
  <scstep>
   <time name="diag">    0.07    0.07</time>
   <time name="diis">    0.43    0.43</time>
   <time name="orth">    0.01    0.01</time>
   <time name="total">    0.62    0.62</time>
   <dipole>
    <v name="dipole">      0.63632744       0.10371812      -0.33813023 </v>
    <i name="Tr[quadrupol]">     15.10505554 </i>
    <i name="Echarged">      0.00000000 </i>
    <i name="Edipol_quadrupol">      0.00000000 </i>
    <i name="Eion">      0.00000000 </i>
   </dipole>
   <energy>
    <i name="e_fr_energy">    -55.98104770 </i>
    <i name="e_wo_entrp">    -55.98104770 </i>
    <i name="e_0_energy">    -55.98104770 </i>
   </energy>
  </scstep>
  <scstep>
   <time name="diag">    0.07    0.07</time>
   <time name="diis">    0.41    0.41</time>
   <time name="orth">    0.01    0.01</time>
   <time name="total">    0.60    0.60</time>
   <dipole>
    <v name="dipole">      0.57209909       0.13373070      -0.25653824 </v>
    <i name="Tr[quadrupol]">     15.77720270 </i>
    <i name="Echarged">      0.00000000 </i>
    <i name="Edipol_quadrupol">      0.00000000 </i>
    <i name="Eion">      0.00000000 </i>
   </dipole>
   <energy>
    <i name="e_fr_energy">    -55.72324781 </i>
    <i name="e_wo_entrp">    -55.72324781 </i>
    <i name="e_0_energy">    -55.72324781 </i>
   </energy>
  </scstep>
  <scstep>
   <time name="diag">    0.07    0.07</time>
   <time name="diis">    0.42    0.42</time>
   <time name="orth">    0.01    0.01</time>
   <time name="total">    0.61    0.61</time>
   <dipole>
    <v name="dipole">      0.52954332       0.13314558      -0.22143165 </v>
    <i name="Tr[quadrupol]">     16.05248941 </i>
    <i name="Echarged">      0.00000000 </i>
    <i name="Edipol_quadrupol">      0.00000000 </i>
    <i name="Eion">      0.00000000 </i>
   </dipole>
   <energy>
    <i name="e_fr_energy">    -55.55258872 </i>
    <i name="e_wo_entrp">    -55.55258872 </i>
    <i name="e_0_energy">    -55.55258872 </i>
   </energy>
  </scstep>
  <scstep>
   <time name="diag">    0.07    0.07</time>
   <time name="diis">    0.42    0.42</time>
   <time name="orth">    0.01    0.01</time>
   <time name="total">    0.62    0.62</time>
   <dipole>
    <v name="dipole">      0.44614328       0.13632599      -0.16912008 </v>
    <i name="Tr[quadrupol]">     16.55305513 </i>
    <i name="Echarged">      0.00000000 </i>
    <i name="Edipol_quadrupol">      0.00000000 </i>
    <i name="Eion">      0.00000000 </i>
   </dipole>
   <energy>
    <i name="e_fr_energy">    -55.56402494 </i>
    <i name="e_wo_entrp">    -55.56402494 </i>
    <i name="e_0_energy">    -55.56402494 </i>
   </energy>
  </scstep>
  <scstep>
   <time name="diag">    0.07    0.07</time>
   <time name="diis">    0.41    0.41</time>
   <time name="orth">    0.01    0.01</time>
   <time name="total">    0.61    0.61</time>
   <dipole>
    <v name="dipole">      0.39607763       0.14146707      -0.13857897 </v>
    <i name="Tr[quadrupol]">     16.89163779 </i>
    <i name="Echarged">      0.00000000 </i>
    <i name="Edipol_quadrupol">      0.00000000 </i>
    <i name="Eion">      0.00000000 </i>
   </dipole>
   <energy>
    <i name="e_fr_energy">    -55.55170502 </i>
    <i name="e_wo_entrp">    -55.55170502 </i>
    <i name="e_0_energy">    -55.55170502 </i>
   </energy>
  </scstep>
  <scstep>
   <time name="diag">    0.07    0.07</time>
   <time name="diis">    0.41    0.41</time>
   <time name="orth">    0.01    0.01</time>
   <time name="total">    0.60    0.60</time>
   <dipole>
    <v name="dipole">      0.30881981       0.14455264      -0.10088859 </v>
    <i name="Tr[quadrupol]">     17.42435690 </i>
    <i name="Echarged">      0.00000000 </i>
    <i name="Edipol_quadrupol">      0.00000000 </i>
    <i name="Eion">      0.00000000 </i>
   </dipole>
   <energy>
    <i name="e_fr_energy">    -55.55509229 </i>
    <i name="e_wo_entrp">    -55.55509229 </i>
    <i name="e_0_energy">    -55.55509229 </i>
   </energy>
  </scstep>
  <scstep>
   <time name="diag">    0.08    0.08</time>
   <time name="diis">    0.41    0.41</time>
   <time name="orth">    0.01    0.01</time>
   <time name="total">    0.61    0.61</time>
   <dipole>
    <v name="dipole">      0.22474977       0.14446819      -0.07080645 </v>
    <i name="Tr[quadrupol]">     17.89146194 </i>
    <i name="Echarged">      0.00000000 </i>
    <i name="Edipol_quadrupol">      0.00000000 </i>
    <i name="Eion">      0.00000000 </i>
   </dipole>
   <energy>
    <i name="e_fr_energy">    -55.55520671 </i>
    <i name="e_wo_entrp">    -55.55520671 </i>
    <i name="e_0_energy">    -55.55520671 </i>
   </energy>
  </scstep>
  <scstep>
   <time name="diag">    0.07    0.07</time>
   <time name="diis">    0.42    0.42</time>
   <time name="orth">    0.01    0.01</time>
   <time name="total">    0.62    0.62</time>
   <dipole>
    <v name="dipole">      0.15234973       0.14396774      -0.05154662 </v>
    <i name="Tr[quadrupol]">     18.26877906 </i>
    <i name="Echarged">      0.00000000 </i>
    <i name="Edipol_quadrupol">      0.00000000 </i>
    <i name="Eion">      0.00000000 </i>
   </dipole>
   <energy>
    <i name="e_fr_energy">    -55.55742614 </i>
    <i name="e_wo_entrp">    -55.55742614 </i>
    <i name="e_0_energy">    -55.55742614 </i>
   </energy>
  </scstep>
  <scstep>
   <time name="diag">    0.07    0.07</time>
   <time name="diis">    0.43    0.43</time>
   <time name="orth">    0.01    0.01</time>
   <time name="total">    0.62    0.63</time>
   <dipole>
    <v name="dipole">      0.11470607       0.14304338      -0.04514695 </v>
    <i name="Tr[quadrupol]">     18.44384116 </i>
    <i name="Echarged">      0.00000000 </i>
    <i name="Edipol_quadrupol">      0.00000000 </i>
    <i name="Eion">      0.00000000 </i>
   </dipole>
   <energy>
    <i name="e_fr_energy">    -55.55891923 </i>
    <i name="e_wo_entrp">    -55.55891923 </i>
    <i name="e_0_energy">    -55.55891923 </i>
   </energy>
  </scstep>
  <scstep>
   <time name="diag">    0.07    0.07</time>
   <time name="diis">    0.42    0.42</time>
   <time name="orth">    0.01    0.01</time>
   <time name="total">    0.62    0.62</time>
   <dipole>
    <v name="dipole">      0.09197012       0.14221239      -0.04178171 </v>
    <i name="Tr[quadrupol]">     18.54635659 </i>
    <i name="Echarged">      0.00000000 </i>
    <i name="Edipol_quadrupol">      0.00000000 </i>
    <i name="Eion">      0.00000000 </i>
   </dipole>
   <energy>
    <i name="e_fr_energy">    -55.55980713 </i>
    <i name="e_wo_entrp">    -55.55980713 </i>
    <i name="e_0_energy">    -55.55980713 </i>
   </energy>
  </scstep>
  <scstep>
   <time name="diag">    0.07    0.07</time>
   <time name="diis">    0.41    0.41</time>
   <time name="orth">    0.01    0.01</time>
   <time name="total">    0.61    0.61</time>
   <dipole>
    <v name="dipole">      0.07298660       0.14125815      -0.03952759 </v>
    <i name="Tr[quadrupol]">     18.62711013 </i>
    <i name="Echarged">      0.00000000 </i>
    <i name="Edipol_quadrupol">      0.00000000 </i>
    <i name="Eion">      0.00000000 </i>
   </dipole>
   <energy>
    <i name="e_fr_energy">    -55.56106879 </i>
    <i name="e_wo_entrp">    -55.56106879 </i>
    <i name="e_0_energy">    -55.56106879 </i>
   </energy>
  </scstep>
  <scstep>
   <time name="diag">    0.07    0.07</time>
   <time name="diis">    0.41    0.41</time>
   <time name="orth">    0.01    0.01</time>
   <time name="total">    0.61    0.61</time>
   <dipole>
    <v name="dipole">      0.06339091       0.14093845      -0.03685834 </v>
    <i name="Tr[quadrupol]">     18.67403439 </i>
    <i name="Echarged">      0.00000000 </i>
    <i name="Edipol_quadrupol">      0.00000000 </i>
    <i name="Eion">      0.00000000 </i>
   </dipole>
   <energy>
    <i name="e_fr_energy">    -55.56147870 </i>
    <i name="e_wo_entrp">    -55.56147870 </i>
    <i name="e_0_energy">    -55.56147870 </i>
   </energy>
  </scstep>
  <scstep>
   <time name="diag">    0.07    0.07</time>
   <time name="diis">    0.42    0.42</time>
   <time name="orth">    0.01    0.01</time>
   <time name="total">    0.62    0.62</time>
   <dipole>
    <v name="dipole">      0.05857787       0.14059427      -0.03394148 </v>
    <i name="Tr[quadrupol]">     18.70084571 </i>
    <i name="Echarged">      0.00000000 </i>
    <i name="Edipol_quadrupol">      0.00000000 </i>
    <i name="Eion">      0.00000000 </i>
   </dipole>
   <energy>
    <i name="e_fr_energy">    -55.56175854 </i>
    <i name="e_wo_entrp">    -55.56175854 </i>
    <i name="e_0_energy">    -55.56175854 </i>
   </energy>
  </scstep>
  <scstep>
   <time name="diag">    0.07    0.07</time>
   <time name="diis">    0.41    0.41</time>
   <time name="orth">    0.01    0.01</time>
   <time name="total">    0.61    0.61</time>
   <dipole>
    <v name="dipole">      0.05694496       0.14050253      -0.03232909 </v>
    <i name="Tr[quadrupol]">     18.71230132 </i>
    <i name="Echarged">      0.00000000 </i>
    <i name="Edipol_quadrupol">      0.00000000 </i>
    <i name="Eion">      0.00000000 </i>
   </dipole>
   <energy>
    <i name="e_fr_energy">    -55.56185469 </i>
    <i name="e_wo_entrp">    -55.56185469 </i>
    <i name="e_0_energy">    -55.56185469 </i>
   </energy>
  </scstep>
  <scstep>
   <time name="diag">    0.07    0.07</time>
   <time name="diis">    0.35    0.35</time>
   <time name="orth">    0.01    0.01</time>
   <time name="total">    0.55    0.55</time>
   <dipole>
    <v name="dipole">      0.05637646       0.14045821      -0.03054628 </v>
    <i name="Tr[quadrupol]">     18.72039586 </i>
    <i name="Echarged">      0.00000000 </i>
    <i name="Edipol_quadrupol">      0.00000000 </i>
    <i name="Eion">      0.00000000 </i>
   </dipole>
   <energy>
    <i name="e_fr_energy">    -55.56194909 </i>
    <i name="e_wo_entrp">    -55.56194909 </i>
    <i name="e_0_energy">    -55.56194909 </i>
   </energy>
  </scstep>
  <scstep>
   <time name="diag">    0.07    0.07</time>
   <time name="diis">    0.36    0.36</time>
   <time name="orth">    0.01    0.01</time>
   <time name="total">    0.56    0.56</time>
   <dipole>
    <v name="dipole">      0.05653240       0.14045425      -0.02941540 </v>
    <i name="Tr[quadrupol]">     18.72401431 </i>
    <i name="Echarged">      0.00000000 </i>
    <i name="Edipol_quadrupol">      0.00000000 </i>
    <i name="Eion">      0.00000000 </i>
   </dipole>
   <energy>
    <i name="e_fr_energy">    -55.56199093 </i>
    <i name="e_wo_entrp">    -55.56199093 </i>
    <i name="e_0_energy">    -55.56199093 </i>
   </energy>
  </scstep>
  <scstep>
   <time name="diag">    0.07    0.07</time>
   <time name="diis">    0.31    0.31</time>
   <time name="orth">    0.01    0.01</time>
   <time name="total">    0.51    0.52</time>
   <dipole>
    <v name="dipole">      0.05676922       0.14043738      -0.02853899 </v>
    <i name="Tr[quadrupol]">     18.72658817 </i>
    <i name="Echarged">      0.00000000 </i>
    <i name="Edipol_quadrupol">      0.00000000 </i>
    <i name="Eion">      0.00000000 </i>
   </dipole>
   <energy>
    <i name="e_fr_energy">    -55.56201341 </i>
    <i name="e_wo_entrp">    -55.56201341 </i>
    <i name="e_0_energy">    -55.56201341 </i>
   </energy>
  </scstep>
  <scstep>
   <time name="diag">    0.07    0.07</time>
   <time name="diis">    0.30    0.30</time>
   <time name="orth">    0.01    0.01</time>
   <time name="total">    0.50    0.51</time>
   <dipole>
    <v name="dipole">      0.05698771       0.14041666      -0.02807175 </v>
    <i name="Tr[quadrupol]">     18.72784290 </i>
    <i name="Echarged">      0.00000000 </i>
    <i name="Edipol_quadrupol">      0.00000000 </i>
    <i name="Eion">      0.00000000 </i>
   </dipole>
   <energy>
    <i name="e_fr_energy">    -55.56202273 </i>
    <i name="e_wo_entrp">    -55.56202273 </i>
    <i name="e_0_energy">    -55.56202273 </i>
   </energy>
  </scstep>
  <scstep>
   <time name="diag">    0.07    0.07</time>
   <time name="diis">    0.31    0.31</time>
   <time name="orth">    0.01    0.01</time>
   <time name="total">    0.51    0.51</time>
   <dipole>
    <v name="dipole">      0.05717035       0.14039700      -0.02777007 </v>
    <i name="Tr[quadrupol]">     18.72869389 </i>
    <i name="Echarged">      0.00000000 </i>
    <i name="Edipol_quadrupol">      0.00000000 </i>
    <i name="Eion">      0.00000000 </i>
   </dipole>
   <energy>
    <i name="e_fr_energy">    -55.56202773 </i>
    <i name="e_wo_entrp">    -55.56202773 </i>
    <i name="e_0_energy">    -55.56202773 </i>
   </energy>
  </scstep>
  <scstep>
   <time name="diag">    0.07    0.07</time>
   <time name="diis">    0.29    0.29</time>
   <time name="orth">    0.01    0.01</time>
   <time name="total">    0.49    0.49</time>
   <dipole>
    <v name="dipole">      0.05727839       0.14038270      -0.02764802 </v>
    <i name="Tr[quadrupol]">     18.72910483 </i>
    <i name="Echarged">      0.00000000 </i>
    <i name="Edipol_quadrupol">      0.00000000 </i>
    <i name="Eion">      0.00000000 </i>
   </dipole>
   <energy>
    <i name="e_fr_energy">    -55.56202999 </i>
    <i name="e_wo_entrp">    -55.56202999 </i>
    <i name="e_0_energy">    -55.56202999 </i>
   </energy>
  </scstep>
  <scstep>
   <time name="diag">    0.07    0.07</time>
   <time name="diis">    0.30    0.30</time>
   <time name="orth">    0.01    0.01</time>
   <time name="total">    0.50    0.50</time>
   <dipole>
    <v name="dipole">      0.05733900       0.14037191      -0.02758400 </v>
    <i name="Tr[quadrupol]">     18.72938099 </i>
    <i name="Echarged">      0.00000000 </i>
    <i name="Edipol_quadrupol">      0.00000000 </i>
    <i name="Eion">      0.00000000 </i>
   </dipole>
   <energy>
    <i name="e_fr_energy">    -55.56203118 </i>
    <i name="e_wo_entrp">    -55.56203118 </i>
    <i name="e_0_energy">    -55.56203118 </i>
   </energy>
  </scstep>
  <scstep>
   <time name="diag">    0.07    0.07</time>
   <time name="diis">    0.29    0.29</time>
   <time name="orth">    0.01    0.01</time>
   <time name="total">    0.46    0.46</time>
   <dipole>
    <v name="dipole">      0.05736115       0.14036716      -0.02757134 </v>
    <i name="Tr[quadrupol]">     18.72948445 </i>
    <i name="Echarged">      0.00000000 </i>
    <i name="Edipol_quadrupol">      0.00000000 </i>
    <i name="Eion">      0.00000000 </i>
   </dipole>
   <energy>
    <i name="alphaZ">      1.01071648 </i>
    <i name="ewald">   3055.54494677 </i>
    <i name="hartreedc">  -5385.22473494 </i>
    <i name="XCdc">    205.26017900 </i>
    <i name="pawpsdc">   3474.68005751 </i>
    <i name="pawaedc">  -3487.79518733 </i>
    <i name="eentropy">     -0.00000000 </i>
    <i name="bandstr">   -662.36077752 </i>
    <i name="atom">   2743.32276819 </i>
    <i name="e_fr_energy">    -55.56203184 </i>
    <i name="e_wo_entrp">    -55.56203184 </i>
    <i name="e_0_energy">    -55.56203184 </i>
   </energy>
  </scstep>
  <structure>
   <crystal>
    <varray name="basis" >
     <v>      20.00000118       0.00000000       0.00000000 </v>
     <v>       0.00000000      20.00000118       0.00000000 </v>
     <v>       0.00000000       0.00000000      20.00000118 </v>
    </varray>
    <i name="volume">   8000.00141508 </i>
    <varray name="rec_basis" >
     <v>       0.05000000      -0.00000000      -0.00000000 </v>
     <v>       0.00000000       0.05000000      -0.00000000 </v>
     <v>       0.00000000       0.00000000       0.05000000 </v>
    </varray>
   </crystal>
   <varray name="positions" >
    <v>       0.51566464       0.48039029       0.42458202 </v>
    <v>       0.58476052       0.51736126       0.44376863 </v>
    <v>       0.50870912       0.51661325       0.57583155 </v>
    <v>       0.50789108       0.44094277       0.55052170 </v>
    <v>       0.60865027       0.48805522       0.54461430 </v>
    <v>       0.68374536       0.47489498       0.51534007 </v>
    <v>       0.41618050       0.43949427       0.47879111 </v>
    <v>       0.44796160       0.36894092       0.45262045 </v>
    <v>       0.33320555       0.49982356       0.52620240 </v>
    <v>       0.39152537       0.54062896       0.50856160 </v>
    <v>       0.49689175       0.56847987       0.47582104 </v>
    <v>       0.47019695       0.63510642       0.51605651 </v>
    <v>       0.53845427       0.52735359       0.42009877 </v>
    <v>       0.53342211       0.47129387       0.58493333 </v>
    <v>       0.64384181       0.50611487       0.50873242 </v>
    <v>       0.46269531       0.41462509       0.47038513 </v>
    <v>       0.34647014       0.49649229       0.50703214 </v>
    <v>       0.46557416       0.58413235       0.51723667 </v>
   </varray>
  </structure>
  <varray name="forces" >
   <v>       0.72466525       1.87965337      -0.17866726 </v>
   <v>      -1.51561950       0.46263078      -0.73241497 </v>
   <v>       1.10512232      -1.79023548       0.45174397 </v>
   <v>       1.10613792       1.08428311       1.37693241 </v>
   <v>       0.94833188       0.71630655      -1.25449306 </v>
   <v>      -1.51595084       1.24309927      -0.42195268 </v>
   <v>       1.68256883      -0.98623703      -0.16914794 </v>
   <v>       0.65950419       1.77440242       0.71668570 </v>
   <v>    -134.73240174      33.11659351     193.98981271 </v>
   <v>      -2.75050661      -2.79666294      -0.17936812 </v>
   <v>      -0.68183495      -0.07704696       0.76920908 </v>
   <v>      -0.43689851      -1.98367781       0.17429511 </v>
   <v>       0.70908261      -2.16121719       1.31501988 </v>
   <v>      -2.04277599       0.71861381      -1.96984618 </v>
   <v>       0.22605679      -1.94021280       1.63369832 </v>
   <v>      -2.71555385      -0.52716596      -0.34131000 </v>
   <v>     138.59288594     -29.93648947    -193.90120126 </v>
   <v>       0.63718626       1.20336281      -1.27899572 </v>
  </varray>
  <varray name="stress" >
   <v>       3.60589788      -2.26624685     -10.40912237 </v>
   <v>      -2.26624685      -3.21087348       2.41995916 </v>
   <v>     -10.40912237       2.41995916      13.07842318 </v>
  </varray>
  <energy>
   <i name="e_fr_energy">    -55.56203184 </i>
   <i name="e_wo_entrp">    -55.56203184 </i>
   <i name="e_0_energy">     -0.00000000 </i>
  </energy>
  <time name="totalsc">   15.07   15.22</time>
 </calculation>
 <calculation>
  <scstep>
   <time name="dav">    0.43    0.44</time>
   <time name="total">    0.56    0.57</time>
   <dipole>
    <v name="dipole">     -0.98747345      -0.03559708       0.85796818 </v>
    <i name="Tr[quadrupol]">     27.21045151 </i>
    <i name="Echarged">      0.00000000 </i>
    <i name="Edipol_quadrupol">      0.00000000 </i>
    <i name="Eion">      0.00000000 </i>
   </dipole>
   <energy>
    <i name="alphaZ">      0.99421360 </i>
    <i name="ewald">   3078.72522206 </i>
    <i name="hartreedc">  -5385.22447428 </i>
    <i name="XCdc">    205.26825046 </i>
    <i name="pawpsdc">   3474.67963837 </i>
    <i name="pawaedc">  -3487.79477372 </i>
    <i name="eentropy">     -0.00000000 </i>
    <i name="bandstr">   -789.27044067 </i>
    <i name="atom">   2743.32276819 </i>
    <i name="e_fr_energy">   -159.29959599 </i>
    <i name="e_wo_entrp">   -159.29959599 </i>
    <i name="e_0_energy">   -159.29959599 </i>
   </energy>
  </scstep>
  <scstep>
   <time name="diag">    0.07    0.07</time>
   <time name="diis">    0.41    0.41</time>
   <time name="orth">    0.01    0.01</time>
   <time name="total">    0.60    0.60</time>
   <dipole>
    <v name="dipole">     -0.57723313       0.07942448       0.48350014 </v>
    <i name="Tr[quadrupol]">     25.06398317 </i>
    <i name="Echarged">      0.00000000 </i>
    <i name="Edipol_quadrupol">      0.00000000 </i>
    <i name="Eion">      0.00000000 </i>
   </dipole>
   <energy>
    <i name="e_fr_energy">   -107.26523629 </i>
    <i name="e_wo_entrp">   -107.26523629 </i>
    <i name="e_0_energy">   -107.26523629 </i>
   </energy>
  </scstep>
  <scstep>
   <time name="diag">    0.07    0.07</time>
   <time name="diis">    0.41    0.41</time>
   <time name="orth">    0.01    0.01</time>
   <time name="total">    0.60    0.60</time>
   <dipole>
    <v name="dipole">     -0.48815900       0.10931374       0.29984152 </v>
    <i name="Tr[quadrupol]">     23.38188369 </i>
    <i name="Echarged">      0.00000000 </i>
    <i name="Edipol_quadrupol">      0.00000000 </i>
    <i name="Eion">      0.00000000 </i>
   </dipole>
   <energy>
    <i name="e_fr_energy">    -88.99155605 </i>
    <i name="e_wo_entrp">    -88.99155605 </i>
    <i name="e_0_energy">    -88.99155605 </i>
   </energy>
  </scstep>
  <scstep>
   <time name="diag">    0.07    0.07</time>
   <time name="diis">    0.41    0.42</time>
   <time name="orth">    0.01    0.01</time>
   <time name="total">    0.61    0.61</time>
   <dipole>
    <v name="dipole">     -0.37448227       0.13938315       0.16299113 </v>
    <i name="Tr[quadrupol]">     22.02639716 </i>
    <i name="Echarged">      0.00000000 </i>
    <i name="Edipol_quadrupol">      0.00000000 </i>
    <i name="Eion">      0.00000000 </i>
   </dipole>
   <energy>
    <i name="e_fr_energy">    -87.52451916 </i>
    <i name="e_wo_entrp">    -87.52451916 </i>
    <i name="e_0_energy">    -87.52451916 </i>
   </energy>
  </scstep>
  <scstep>
   <time name="diag">    0.07    0.07</time>
   <time name="diis">    0.41    0.41</time>
   <time name="orth">    0.01    0.01</time>
   <time name="total">    0.60    0.60</time>
   <dipole>
    <v name="dipole">     -0.27589490       0.15514424       0.11002543 </v>
    <i name="Tr[quadrupol]">     21.35885337 </i>
    <i name="Echarged">      0.00000000 </i>
    <i name="Edipol_quadrupol">      0.00000000 </i>
    <i name="Eion">      0.00000000 </i>
   </dipole>
   <energy>
    <i name="e_fr_energy">    -87.23910815 </i>
    <i name="e_wo_entrp">    -87.23910815 </i>
    <i name="e_0_energy">    -87.23910815 </i>
   </energy>
  </scstep>
  <scstep>
   <time name="diag">    0.07    0.07</time>
   <time name="diis">    0.41    0.41</time>
   <time name="orth">    0.01    0.01</time>
   <time name="total">    0.61    0.61</time>
   <dipole>
    <v name="dipole">     -0.19158140       0.16653904       0.05736107 </v>
    <i name="Tr[quadrupol]">     20.69660541 </i>
    <i name="Echarged">      0.00000000 </i>
    <i name="Edipol_quadrupol">      0.00000000 </i>
    <i name="Eion">      0.00000000 </i>
   </dipole>
   <energy>
    <i name="e_fr_energy">    -87.20464088 </i>
    <i name="e_wo_entrp">    -87.20464088 </i>
    <i name="e_0_energy">    -87.20464088 </i>
   </energy>
  </scstep>
  <scstep>
   <time name="diag">    0.07    0.07</time>
   <time name="diis">    0.41    0.41</time>
   <time name="orth">    0.01    0.01</time>
   <time name="total">    0.60    0.60</time>
   <dipole>
    <v name="dipole">     -0.09595190       0.17696818       0.00986308 </v>
    <i name="Tr[quadrupol]">     20.01739800 </i>
    <i name="Echarged">      0.00000000 </i>
    <i name="Edipol_quadrupol">      0.00000000 </i>
    <i name="Eion">      0.00000000 </i>
   </dipole>
   <energy>
    <i name="e_fr_energy">    -87.20137331 </i>
    <i name="e_wo_entrp">    -87.20137331 </i>
    <i name="e_0_energy">    -87.20137331 </i>
   </energy>
  </scstep>
  <scstep>
   <time name="diag">    0.08    0.08</time>
   <time name="diis">    0.42    0.42</time>
   <time name="orth">    0.01    0.01</time>
   <time name="total">    0.62    0.62</time>
   <dipole>
    <v name="dipole">     -0.00101615       0.18690635      -0.02475315 </v>
    <i name="Tr[quadrupol]">     19.42218439 </i>
    <i name="Echarged">      0.00000000 </i>
    <i name="Edipol_quadrupol">      0.00000000 </i>
    <i name="Eion">      0.00000000 </i>
   </dipole>
   <energy>
    <i name="e_fr_energy">    -87.20754149 </i>
    <i name="e_wo_entrp">    -87.20754149 </i>
    <i name="e_0_energy">    -87.20754149 </i>
   </energy>
  </scstep>
  <scstep>
   <time name="diag">    0.07    0.07</time>
   <time name="diis">    0.41    0.41</time>
   <time name="orth">    0.01    0.01</time>
   <time name="total">    0.60    0.60</time>
   <dipole>
    <v name="dipole">      0.13576463       0.19931992      -0.06929642 </v>
    <i name="Tr[quadrupol]">     18.59332865 </i>
    <i name="Echarged">      0.00000000 </i>
    <i name="Edipol_quadrupol">      0.00000000 </i>
    <i name="Eion">      0.00000000 </i>
   </dipole>
   <energy>
    <i name="e_fr_energy">    -87.21955587 </i>
    <i name="e_wo_entrp">    -87.21955587 </i>
    <i name="e_0_energy">    -87.21955587 </i>
   </energy>
  </scstep>
  <scstep>
   <time name="diag">    0.07    0.07</time>
   <time name="diis">    0.41    0.41</time>
   <time name="orth">    0.01    0.01</time>
   <time name="total">    0.60    0.60</time>
   <dipole>
    <v name="dipole">      0.20371758       0.20394462      -0.08778513 </v>
    <i name="Tr[quadrupol]">     18.21012819 </i>
    <i name="Echarged">      0.00000000 </i>
    <i name="Edipol_quadrupol">      0.00000000 </i>
    <i name="Eion">      0.00000000 </i>
   </dipole>
   <energy>
    <i name="e_fr_energy">    -87.22318520 </i>
    <i name="e_wo_entrp">    -87.22318520 </i>
    <i name="e_0_energy">    -87.22318520 </i>
   </energy>
  </scstep>
  <scstep>
   <time name="diag">    0.07    0.07</time>
   <time name="diis">    0.39    0.39</time>
   <time name="orth">    0.01    0.01</time>
   <time name="total">    0.59    0.59</time>
   <dipole>
    <v name="dipole">      0.28077692       0.20811321      -0.10067289 </v>
    <i name="Tr[quadrupol]">     17.83169371 </i>
    <i name="Echarged">      0.00000000 </i>
    <i name="Edipol_quadrupol">      0.00000000 </i>
    <i name="Eion">      0.00000000 </i>
   </dipole>
   <energy>
    <i name="e_fr_energy">    -87.22984338 </i>
    <i name="e_wo_entrp">    -87.22984338 </i>
    <i name="e_0_energy">    -87.22984338 </i>
   </energy>
  </scstep>
  <scstep>
   <time name="diag">    0.07    0.07</time>
   <time name="diis">    0.42    0.42</time>
   <time name="orth">    0.01    0.01</time>
   <time name="total">    0.62    0.62</time>
   <dipole>
    <v name="dipole">      0.30449324       0.20912680      -0.10292986 </v>
    <i name="Tr[quadrupol]">     17.73031060 </i>
    <i name="Echarged">      0.00000000 </i>
    <i name="Edipol_quadrupol">      0.00000000 </i>
    <i name="Eion">      0.00000000 </i>
   </dipole>
   <energy>
    <i name="e_fr_energy">    -87.23209470 </i>
    <i name="e_wo_entrp">    -87.23209470 </i>
    <i name="e_0_energy">    -87.23209470 </i>
   </energy>
  </scstep>
  <scstep>
   <time name="diag">    0.07    0.07</time>
   <time name="diis">    0.40    0.40</time>
   <time name="orth">    0.01    0.01</time>
   <time name="total">    0.59    0.59</time>
   <dipole>
    <v name="dipole">      0.32971209       0.21010528      -0.10605837 </v>
    <i name="Tr[quadrupol]">     17.62241376 </i>
    <i name="Echarged">      0.00000000 </i>
    <i name="Edipol_quadrupol">      0.00000000 </i>
    <i name="Eion">      0.00000000 </i>
   </dipole>
   <energy>
    <i name="e_fr_energy">    -87.23459846 </i>
    <i name="e_wo_entrp">    -87.23459846 </i>
    <i name="e_0_energy">    -87.23459846 </i>
   </energy>
  </scstep>
  <scstep>
   <time name="diag">    0.07    0.07</time>
   <time name="diis">    0.35    0.35</time>
   <time name="orth">    0.01    0.01</time>
   <time name="total">    0.54    0.54</time>
   <dipole>
    <v name="dipole">      0.34992071       0.21102790      -0.10921534 </v>
    <i name="Tr[quadrupol]">     17.53692899 </i>
    <i name="Echarged">      0.00000000 </i>
    <i name="Edipol_quadrupol">      0.00000000 </i>
    <i name="Eion">      0.00000000 </i>
   </dipole>
   <energy>
    <i name="e_fr_energy">    -87.23619471 </i>
    <i name="e_wo_entrp">    -87.23619471 </i>
    <i name="e_0_energy">    -87.23619471 </i>
   </energy>
  </scstep>
  <scstep>
   <time name="diag">    0.07    0.07</time>
   <time name="diis">    0.39    0.39</time>
   <time name="orth">    0.01    0.01</time>
   <time name="total">    0.59    0.59</time>
   <dipole>
    <v name="dipole">      0.35750481       0.21172723      -0.11219302 </v>
    <i name="Tr[quadrupol]">     17.50028320 </i>
    <i name="Echarged">      0.00000000 </i>
    <i name="Edipol_quadrupol">      0.00000000 </i>
    <i name="Eion">      0.00000000 </i>
   </dipole>
   <energy>
    <i name="e_fr_energy">    -87.23680386 </i>
    <i name="e_wo_entrp">    -87.23680386 </i>
    <i name="e_0_energy">    -87.23680386 </i>
   </energy>
  </scstep>
  <scstep>
   <time name="diag">    0.07    0.07</time>
   <time name="diis">    0.39    0.39</time>
   <time name="orth">    0.01    0.01</time>
   <time name="total">    0.59    0.59</time>
   <dipole>
    <v name="dipole">      0.36039231       0.21237682      -0.11528557 </v>
    <i name="Tr[quadrupol]">     17.47865335 </i>
    <i name="Echarged">      0.00000000 </i>
    <i name="Edipol_quadrupol">      0.00000000 </i>
    <i name="Eion">      0.00000000 </i>
   </dipole>
   <energy>
    <i name="e_fr_energy">    -87.23707133 </i>
    <i name="e_wo_entrp">    -87.23707133 </i>
    <i name="e_0_energy">    -87.23707133 </i>
   </energy>
  </scstep>
  <scstep>
   <time name="diag">    0.07    0.07</time>
   <time name="diis">    0.37    0.37</time>
   <time name="orth">    0.01    0.01</time>
   <time name="total">    0.57    0.57</time>
   <dipole>
    <v name="dipole">      0.36121930       0.21274943      -0.11696061 </v>
    <i name="Tr[quadrupol]">     17.47016214 </i>
    <i name="Echarged">      0.00000000 </i>
    <i name="Edipol_quadrupol">      0.00000000 </i>
    <i name="Eion">      0.00000000 </i>
   </dipole>
   <energy>
    <i name="e_fr_energy">    -87.23718274 </i>
    <i name="e_wo_entrp">    -87.23718274 </i>
    <i name="e_0_energy">    -87.23718274 </i>
   </energy>
  </scstep>
  <scstep>
   <time name="diag">    0.07    0.07</time>
   <time name="diis">    0.32    0.32</time>
   <time name="orth">    0.01    0.01</time>
   <time name="total">    0.53    0.53</time>
   <dipole>
    <v name="dipole">      0.36118714       0.21312721      -0.11859679 </v>
    <i name="Tr[quadrupol]">     17.46457843 </i>
    <i name="Echarged">      0.00000000 </i>
    <i name="Edipol_quadrupol">      0.00000000 </i>
    <i name="Eion">      0.00000000 </i>
   </dipole>
   <energy>
    <i name="e_fr_energy">    -87.23724866 </i>
    <i name="e_wo_entrp">    -87.23724866 </i>
    <i name="e_0_energy">    -87.23724866 </i>
   </energy>
  </scstep>
  <scstep>
   <time name="diag">    0.07    0.07</time>
   <time name="diis">    0.31    0.31</time>
   <time name="orth">    0.01    0.01</time>
   <time name="total">    0.51    0.51</time>
   <dipole>
    <v name="dipole">      0.36100945       0.21327604      -0.11920557 </v>
    <i name="Tr[quadrupol]">     17.46295194 </i>
    <i name="Echarged">      0.00000000 </i>
    <i name="Edipol_quadrupol">      0.00000000 </i>
    <i name="Eion">      0.00000000 </i>
   </dipole>
   <energy>
    <i name="e_fr_energy">    -87.23726429 </i>
    <i name="e_wo_entrp">    -87.23726429 </i>
    <i name="e_0_energy">    -87.23726429 </i>
   </energy>
  </scstep>
  <scstep>
   <time name="diag">    0.07    0.07</time>
   <time name="diis">    0.31    0.31</time>
   <time name="orth">    0.01    0.01</time>
   <time name="total">    0.51    0.51</time>
   <dipole>
    <v name="dipole">      0.36063699       0.21345744      -0.11990426 </v>
    <i name="Tr[quadrupol]">     17.46157482 </i>
    <i name="Echarged">      0.00000000 </i>
    <i name="Edipol_quadrupol">      0.00000000 </i>
    <i name="Eion">      0.00000000 </i>
   </dipole>
   <energy>
    <i name="e_fr_energy">    -87.23727719 </i>
    <i name="e_wo_entrp">    -87.23727719 </i>
    <i name="e_0_energy">    -87.23727719 </i>
   </energy>
  </scstep>
  <scstep>
   <time name="diag">    0.07    0.07</time>
   <time name="diis">    0.31    0.31</time>
   <time name="orth">    0.01    0.01</time>
   <time name="total">    0.51    0.51</time>
   <dipole>
    <v name="dipole">      0.36055603       0.21349819      -0.12005538 </v>
    <i name="Tr[quadrupol]">     17.46125776 </i>
    <i name="Echarged">      0.00000000 </i>
    <i name="Edipol_quadrupol">      0.00000000 </i>
    <i name="Eion">      0.00000000 </i>
   </dipole>
   <energy>
    <i name="e_fr_energy">    -87.23727939 </i>
    <i name="e_wo_entrp">    -87.23727939 </i>
    <i name="e_0_energy">    -87.23727939 </i>
   </energy>
  </scstep>
  <scstep>
   <time name="diag">    0.07    0.07</time>
   <time name="diis">    0.28    0.28</time>
   <time name="orth">    0.01    0.01</time>
   <time name="total">    0.49    0.49</time>
   <dipole>
    <v name="dipole">      0.36042414       0.21356280      -0.12029718 </v>
    <i name="Tr[quadrupol]">     17.46072902 </i>
    <i name="Echarged">      0.00000000 </i>
    <i name="Edipol_quadrupol">      0.00000000 </i>
    <i name="Eion">      0.00000000 </i>
   </dipole>
   <energy>
    <i name="e_fr_energy">    -87.23728255 </i>
    <i name="e_wo_entrp">    -87.23728255 </i>
    <i name="e_0_energy">    -87.23728255 </i>
   </energy>
  </scstep>
  <scstep>
   <time name="diag">    0.07    0.07</time>
   <time name="diis">    0.29    0.29</time>
   <time name="orth">    0.01    0.01</time>
   <time name="total">    0.46    0.46</time>
   <dipole>
    <v name="dipole">      0.36039476       0.21357464      -0.12034100 </v>
    <i name="Tr[quadrupol]">     17.46064962 </i>
    <i name="Echarged">      0.00000000 </i>
    <i name="Edipol_quadrupol">      0.00000000 </i>
    <i name="Eion">      0.00000000 </i>
   </dipole>
   <energy>
    <i name="alphaZ">      1.01156870 </i>
    <i name="ewald">   3078.72522206 </i>
    <i name="hartreedc">  -5447.14299684 </i>
    <i name="XCdc">    204.99008854 </i>
    <i name="pawpsdc">   3357.80246057 </i>
    <i name="pawaedc">  -3370.34010846 </i>
    <i name="eentropy">     -0.00000000 </i>
    <i name="bandstr">   -655.60628606 </i>
    <i name="atom">   2743.32276819 </i>
    <i name="e_fr_energy">    -87.23728329 </i>
    <i name="e_wo_entrp">    -87.23728329 </i>
    <i name="e_0_energy">    -87.23728329 </i>
   </energy>
  </scstep>
  <structure>
   <crystal>
    <varray name="basis" >
     <v>      20.00000118       0.00000000       0.00000000 </v>
     <v>       0.00000000      20.00000118       0.00000000 </v>
[...]
    <i name="atom">   2743.32276819 </i>
    <i name="e_fr_energy">    -87.49496159 </i>
    <i name="e_wo_entrp">    -87.49496159 </i>
    <i name="e_0_energy">    -87.49496159 </i>
   </energy>
  </scstep>
  <scstep>
   <time name="diag">    0.07    0.07</time>
   <time name="diis">    0.34    0.34</time>
   <time name="orth">    0.01    0.01</time>
   <time name="total">    0.54    0.54</time>
   <dipole>
    <v name="dipole">      0.31277493       0.26005959      -0.11861952 </v>
    <i name="Tr[quadrupol]">     18.13383080 </i>
    <i name="Echarged">      0.00000000 </i>
    <i name="Edipol_quadrupol">      0.00000000 </i>
    <i name="Eion">      0.00000000 </i>
   </dipole>
   <energy>
    <i name="e_fr_energy">    -87.49179055 </i>
    <i name="e_wo_entrp">    -87.49179055 </i>
    <i name="e_0_energy">    -87.49179055 </i>
   </energy>
  </scstep>
  <scstep>
   <time name="diag">    0.07    0.07</time>
   <time name="diis">    0.41    0.41</time>
   <time name="orth">    0.01    0.01</time>
   <time name="total">    0.61    0.61</time>
   <dipole>
    <v name="dipole">      0.31426910       0.26085272      -0.11745171 </v>
    <i name="Tr[quadrupol]">     18.15314448 </i>
    <i name="Echarged">      0.00000000 </i>
    <i name="Edipol_quadrupol">      0.00000000 </i>
    <i name="Eion">      0.00000000 </i>
   </dipole>
   <energy>
    <i name="e_fr_energy">    -87.49036253 </i>
    <i name="e_wo_entrp">    -87.49036253 </i>
    <i name="e_0_energy">    -87.49036253 </i>
   </energy>
  </scstep>
  <scstep>
   <time name="diag">    0.07    0.07</time>
   <time name="diis">    0.41    0.41</time>
   <time name="orth">    0.01    0.01</time>
   <time name="total">    0.61    0.61</time>
   <dipole>
    <v name="dipole">      0.31446898       0.26087020      -0.11736083 </v>
    <i name="Tr[quadrupol]">     18.15484141 </i>
    <i name="Echarged">      0.00000000 </i>
    <i name="Edipol_quadrupol">      0.00000000 </i>
    <i name="Eion">      0.00000000 </i>
   </dipole>
   <energy>
    <i name="e_fr_energy">    -87.49035980 </i>
    <i name="e_wo_entrp">    -87.49035980 </i>
    <i name="e_0_energy">    -87.49035980 </i>
   </energy>
  </scstep>
  <scstep>
   <time name="diag">    0.07    0.07</time>
   <time name="diis">    0.40    0.40</time>
   <time name="orth">    0.01    0.01</time>
   <time name="total">    0.60    0.60</time>
   <dipole>
    <v name="dipole">      0.31487484       0.26094624      -0.11718219 </v>
    <i name="Tr[quadrupol]">     18.15887518 </i>
    <i name="Echarged">      0.00000000 </i>
    <i name="Edipol_quadrupol">      0.00000000 </i>
    <i name="Eion">      0.00000000 </i>
   </dipole>
   <energy>
    <i name="e_fr_energy">    -87.49038661 </i>
    <i name="e_wo_entrp">    -87.49038661 </i>
    <i name="e_0_energy">    -87.49038661 </i>
   </energy>
  </scstep>
  <scstep>
   <time name="diag">    0.07    0.07</time>
   <time name="diis">    0.39    0.40</time>
   <time name="orth">    0.01    0.01</time>
   <time name="total">    0.59    0.59</time>
   <dipole>
    <v name="dipole">      0.31518328       0.26103537      -0.11706423 </v>
    <i name="Tr[quadrupol]">     18.16253710 </i>
    <i name="Echarged">      0.00000000 </i>
    <i name="Edipol_quadrupol">      0.00000000 </i>
    <i name="Eion">      0.00000000 </i>
   </dipole>
   <energy>
    <i name="e_fr_energy">    -87.49040111 </i>
    <i name="e_wo_entrp">    -87.49040111 </i>
    <i name="e_0_energy">    -87.49040111 </i>
   </energy>
  </scstep>
  <scstep>
   <time name="diag">    0.07    0.07</time>
   <time name="diis">    0.33    0.33</time>
   <time name="orth">    0.01    0.01</time>
   <time name="total">    0.53    0.53</time>
   <dipole>
    <v name="dipole">      0.31554328       0.26109468      -0.11694522 </v>
    <i name="Tr[quadrupol]">     18.16651435 </i>
    <i name="Echarged">      0.00000000 </i>
    <i name="Edipol_quadrupol">      0.00000000 </i>
    <i name="Eion">      0.00000000 </i>
   </dipole>
   <energy>
    <i name="e_fr_energy">    -87.49042157 </i>
    <i name="e_wo_entrp">    -87.49042157 </i>
    <i name="e_0_energy">    -87.49042157 </i>
   </energy>
  </scstep>
  <scstep>
   <time name="diag">    0.07    0.07</time>
   <time name="diis">    0.33    0.33</time>
   <time name="orth">    0.01    0.01</time>
   <time name="total">    0.53    0.53</time>
   <dipole>
    <v name="dipole">      0.31580048       0.26111952      -0.11688058 </v>
    <i name="Tr[quadrupol]">     18.16989102 </i>
    <i name="Echarged">      0.00000000 </i>
    <i name="Edipol_quadrupol">      0.00000000 </i>
    <i name="Eion">      0.00000000 </i>
   </dipole>
   <energy>
    <i name="e_fr_energy">    -87.49044084 </i>
    <i name="e_wo_entrp">    -87.49044084 </i>
    <i name="e_0_energy">    -87.49044084 </i>
   </energy>
  </scstep>
  <scstep>
   <time name="diag">    0.07    0.07</time>
   <time name="diis">    0.31    0.32</time>
   <time name="orth">    0.01    0.01</time>
   <time name="total">    0.51    0.52</time>
   <dipole>
    <v name="dipole">      0.31605060       0.26114904      -0.11683315 </v>
    <i name="Tr[quadrupol]">     18.17336820 </i>
    <i name="Echarged">      0.00000000 </i>
    <i name="Edipol_quadrupol">      0.00000000 </i>
    <i name="Eion">      0.00000000 </i>
   </dipole>
   <energy>
    <i name="e_fr_energy">    -87.49045416 </i>
    <i name="e_wo_entrp">    -87.49045416 </i>
    <i name="e_0_energy">    -87.49045416 </i>
   </energy>
  </scstep>
  <scstep>
   <time name="diag">    0.07    0.07</time>
   <time name="diis">    0.32    0.32</time>
   <time name="orth">    0.01    0.01</time>
   <time name="total">    0.52    0.52</time>
   <dipole>
    <v name="dipole">      0.31616349       0.26114899      -0.11682395 </v>
    <i name="Tr[quadrupol]">     18.17527417 </i>
    <i name="Echarged">      0.00000000 </i>
    <i name="Edipol_quadrupol">      0.00000000 </i>
    <i name="Eion">      0.00000000 </i>
   </dipole>
   <energy>
    <i name="e_fr_energy">    -87.49046079 </i>
    <i name="e_wo_entrp">    -87.49046079 </i>
    <i name="e_0_energy">    -87.49046079 </i>
   </energy>
  </scstep>
  <scstep>
   <time name="diag">    0.07    0.07</time>
   <time name="diis">    0.31    0.31</time>
   <time name="orth">    0.01    0.01</time>
   <time name="total">    0.51    0.51</time>
   <dipole>
    <v name="dipole">      0.31627282       0.26114245      -0.11681630 </v>
    <i name="Tr[quadrupol]">     18.17728234 </i>
    <i name="Echarged">      0.00000000 </i>
    <i name="Edipol_quadrupol">      0.00000000 </i>
    <i name="Eion">      0.00000000 </i>
   </dipole>
   <energy>
    <i name="e_fr_energy">    -87.49046654 </i>
    <i name="e_wo_entrp">    -87.49046654 </i>
    <i name="e_0_energy">    -87.49046654 </i>
   </energy>
  </scstep>
  <scstep>
   <time name="diag">    0.07    0.07</time>
   <time name="diis">    0.30    0.30</time>
   <time name="orth">    0.01    0.01</time>
   <time name="total">    0.51    0.51</time>
   <dipole>
    <v name="dipole">      0.31633382       0.26112944      -0.11681762 </v>
    <i name="Tr[quadrupol]">     18.17866133 </i>
    <i name="Echarged">      0.00000000 </i>
    <i name="Edipol_quadrupol">      0.00000000 </i>
    <i name="Eion">      0.00000000 </i>
   </dipole>
   <energy>
    <i name="e_fr_energy">    -87.49047009 </i>
    <i name="e_wo_entrp">    -87.49047009 </i>
    <i name="e_0_energy">    -87.49047009 </i>
   </energy>
  </scstep>
  <scstep>
   <time name="diag">    0.07    0.07</time>
   <time name="diis">    0.30    0.30</time>
   <time name="orth">    0.01    0.01</time>
   <time name="total">    0.50    0.51</time>
   <dipole>
    <v name="dipole">      0.31636014       0.26112287      -0.11681786 </v>
    <i name="Tr[quadrupol]">     18.17933351 </i>
    <i name="Echarged">      0.00000000 </i>
    <i name="Edipol_quadrupol">      0.00000000 </i>
    <i name="Eion">      0.00000000 </i>
   </dipole>
   <energy>
    <i name="e_fr_energy">    -87.49047179 </i>
    <i name="e_wo_entrp">    -87.49047179 </i>
    <i name="e_0_energy">    -87.49047179 </i>
   </energy>
  </scstep>
  <scstep>
   <time name="diag">    0.07    0.07</time>
   <time name="diis">    0.29    0.29</time>
   <time name="orth">    0.01    0.01</time>
   <time name="total">    0.50    0.50</time>
   <dipole>
    <v name="dipole">      0.31639291       0.26111804      -0.11681440 </v>
    <i name="Tr[quadrupol]">     18.18011401 </i>
    <i name="Echarged">      0.00000000 </i>
    <i name="Edipol_quadrupol">      0.00000000 </i>
    <i name="Eion">      0.00000000 </i>
   </dipole>
   <energy>
    <i name="e_fr_energy">    -87.49047357 </i>
    <i name="e_wo_entrp">    -87.49047357 </i>
    <i name="e_0_energy">    -87.49047357 </i>
   </energy>
  </scstep>
  <scstep>
   <time name="diag">    0.07    0.07</time>
   <time name="diis">    0.29    0.29</time>
   <time name="orth">    0.01    0.01</time>
   <time name="total">    0.46    0.46</time>
   <dipole>
    <v name="dipole">      0.31640896       0.26111994      -0.11680896 </v>
    <i name="Tr[quadrupol]">     18.18040405 </i>
    <i name="Echarged">      0.00000000 </i>
    <i name="Edipol_quadrupol">      0.00000000 </i>
    <i name="Eion">      0.00000000 </i>
   </dipole>
   <energy>
    <i name="alphaZ">      1.01144843 </i>
    <i name="ewald">   3139.55147462 </i>
    <i name="hartreedc">  -5505.86756452 </i>
    <i name="XCdc">    205.24006179 </i>
    <i name="pawpsdc">   3363.11364722 </i>
    <i name="pawaedc">  -3375.64223589 </i>
    <i name="eentropy">     -0.00000000 </i>
    <i name="bandstr">   -658.22007418 </i>
    <i name="atom">   2743.32276819 </i>
    <i name="e_fr_energy">    -87.49047436 </i>
    <i name="e_wo_entrp">    -87.49047436 </i>
    <i name="e_0_energy">    -87.49047436 </i>
   </energy>
  </scstep>
  <structure>
   <crystal>
    <varray name="basis" >
     <v>      20.00000118       0.00000000       0.00000000 </v>
     <v>       0.00000000      20.00000118       0.00000000 </v>
     <v>       0.00000000       0.00000000      20.00000118 </v>
    </varray>
    <i name="volume">   8000.00141508 </i>
    <varray name="rec_basis" >
     <v>       0.05000000      -0.00000000      -0.00000000 </v>
     <v>       0.00000000       0.05000000      -0.00000000 </v>
     <v>       0.00000000       0.00000000       0.05000000 </v>
    </varray>
   </crystal>
   <varray name="positions" >
    <v>       0.51583216       0.48481817       0.42404612 </v>
    <v>       0.58258870       0.51899194       0.44553401 </v>
    <v>       0.51026930       0.51478171       0.57656989 </v>
    <v>       0.50817313       0.44218738       0.55086156 </v>
    <v>       0.60735923       0.48671258       0.54270664 </v>
    <v>       0.67572939       0.46835920       0.50726580 </v>
    <v>       0.41691588       0.44183655       0.47925821 </v>
    <v>       0.44780344       0.37269824       0.45519798 </v>
    <v>       0.33519054       0.49652135       0.53919487 </v>
    <v>       0.39259256       0.53915488       0.50629080 </v>
    <v>       0.49623042       0.56821313       0.47710595 </v>
    <v>       0.46825618       0.63197609       0.51715931 </v>
    <v>       0.53951342       0.52793721       0.42196910 </v>
    <v>       0.53161571       0.47099561       0.58336591 </v>
    <v>       0.64147795       0.50270222       0.50965659 </v>
    <v>       0.45985304       0.41697228       0.47112417 </v>
    <v>       0.35966570       0.50245907       0.49762666 </v>
    <v>       0.46677377       0.58342623       0.51619629 </v>
   </varray>
  </structure>
  <varray name="forces" >
   <v>       0.00050017       0.00002695      -0.00385190 </v>
   <v>       0.00377993       0.00153531       0.00055393 </v>
   <v>      -0.00612965       0.00863175       0.00221486 </v>
   <v>       0.00322872       0.00634512       0.00851823 </v>
   <v>       0.00192908       0.00166615      -0.00083130 </v>
   <v>       0.00120852      -0.00037557      -0.00109002 </v>
   <v>       0.00023866       0.00005754       0.00090889 </v>
   <v>       0.00094482      -0.00460462      -0.00336857 </v>
   <v>      -0.00349949      -0.00169956       0.00565935 </v>
   <v>      -0.00908653      -0.00105817       0.00313965 </v>
   <v>      -0.00015457       0.00143108      -0.00285301 </v>
   <v>      -0.00039687      -0.00164299       0.00300281 </v>
   <v>      -0.00537444      -0.00355733       0.00645810 </v>
   <v>       0.00347155      -0.01843050      -0.00703100 </v>
   <v>      -0.00464128       0.00204037      -0.00000261 </v>
   <v>      -0.00054980       0.00359870       0.00028597 </v>
   <v>       0.01192018       0.00354365      -0.01390164 </v>
   <v>       0.00261100       0.00249213       0.00218824 </v>
  </varray>
  <varray name="stress" >
   <v>      -0.92310438       0.00027891      -0.00404891 </v>
   <v>       0.00027891      -0.89590755       0.01573180 </v>
   <v>      -0.00404891       0.01573180      -0.95884216 </v>
  </varray>
  <energy>
   <i name="e_fr_energy">    -87.49047436 </i>
   <i name="e_wo_entrp">    -87.49047436 </i>
   <i name="e_0_energy">     -0.00000000 </i>
  </energy>
  <time name="totalsc">    8.62    8.82</time>
 </calculation>
 <calculation>
  <scstep>
   <time name="dav">    0.42    0.42</time>
   <time name="total">    0.54    0.54</time>
   <dipole>
    <v name="dipole">      0.31608756       0.26195664      -0.11589669 </v>
    <i name="Tr[quadrupol]">     18.18868272 </i>
    <i name="Echarged">      0.00000000 </i>
    <i name="Edipol_quadrupol">      0.00000000 </i>
    <i name="Eion">      0.00000000 </i>
   </dipole>
   <energy>
    <i name="alphaZ">      1.01144397 </i>
    <i name="ewald">   3139.60170952 </i>
    <i name="hartreedc">  -5505.86748536 </i>
    <i name="XCdc">    205.24007333 </i>
    <i name="pawpsdc">   3363.11420883 </i>
    <i name="pawaedc">  -3375.64279744 </i>
    <i name="eentropy">     -0.00000000 </i>
    <i name="bandstr">   -658.27049320 </i>
    <i name="atom">   2743.32276819 </i>
    <i name="e_fr_energy">    -87.49057215 </i>
    <i name="e_wo_entrp">    -87.49057215 </i>
    <i name="e_0_energy">    -87.49057215 </i>
   </energy>
  </scstep>
  <scstep>
   <time name="diag">    0.07    0.07</time>
   <time name="diis">    0.37    0.37</time>
   <time name="orth">    0.01    0.01</time>
   <time name="total">    0.57    0.57</time>
   <dipole>
    <v name="dipole">      0.31613553       0.26175602      -0.11618966 </v>
    <i name="Tr[quadrupol]">     18.18690223 </i>
    <i name="Echarged">      0.00000000 </i>
    <i name="Edipol_quadrupol">      0.00000000 </i>
    <i name="Eion">      0.00000000 </i>
   </dipole>
   <energy>
    <i name="e_fr_energy">    -87.49051061 </i>
    <i name="e_wo_entrp">    -87.49051061 </i>
    <i name="e_0_energy">    -87.49051061 </i>
   </energy>
  </scstep>
  <scstep>
   <time name="diag">    0.07    0.07</time>
   <time name="diis">    0.41    0.41</time>
   <time name="orth">    0.01    0.01</time>
   <time name="total">    0.61    0.61</time>
   <dipole>
    <v name="dipole">      0.31621858       0.26144078      -0.11660939 </v>
    <i name="Tr[quadrupol]">     18.18419999 </i>
    <i name="Echarged">      0.00000000 </i>
    <i name="Edipol_quadrupol">      0.00000000 </i>
    <i name="Eion">      0.00000000 </i>
   </dipole>
   <energy>
    <i name="e_fr_energy">    -87.49048070 </i>
    <i name="e_wo_entrp">    -87.49048070 </i>
    <i name="e_0_energy">    -87.49048070 </i>
   </energy>
  </scstep>
  <scstep>
   <time name="diag">    0.07    0.07</time>
   <time name="diis">    0.31    0.31</time>
   <time name="orth">    0.01    0.01</time>
   <time name="total">    0.48    0.48</time>
   <dipole>
    <v name="dipole">      0.31623593       0.26140588      -0.11662809 </v>
    <i name="Tr[quadrupol]">     18.18396547 </i>
    <i name="Echarged">      0.00000000 </i>
    <i name="Edipol_quadrupol">      0.00000000 </i>
    <i name="Eion">      0.00000000 </i>
   </dipole>
   <energy>
    <i name="alphaZ">      1.01144691 </i>
    <i name="ewald">   3139.60170952 </i>
    <i name="hartreedc">  -5505.90832703 </i>
    <i name="XCdc">    205.23960807 </i>
    <i name="pawpsdc">   3363.09624629 </i>
    <i name="pawaedc">  -3375.62481052 </i>
    <i name="eentropy">     -0.00000000 </i>
    <i name="bandstr">   -658.22912204 </i>
    <i name="atom">   2743.32276819 </i>
    <i name="e_fr_energy">    -87.49048060 </i>
    <i name="e_wo_entrp">    -87.49048060 </i>
    <i name="e_0_energy">    -87.49048060 </i>
   </energy>
  </scstep>
  <structure>
   <crystal>
    <varray name="basis" >
     <v>      20.00000118       0.00000000       0.00000000 </v>
     <v>       0.00000000      20.00000118       0.00000000 </v>
     <v>       0.00000000       0.00000000      20.00000118 </v>
    </varray>
    <i name="volume">   8000.00141508 </i>
    <varray name="rec_basis" >
     <v>       0.05000000      -0.00000000      -0.00000000 </v>
     <v>       0.00000000       0.05000000      -0.00000000 </v>
     <v>       0.00000000       0.00000000       0.05000000 </v>
    </varray>
   </crystal>
   <varray name="positions" >
    <v>       0.51582996       0.48481179       0.42404322 </v>
    <v>       0.58258967       0.51899112       0.44553312 </v>
    <v>       0.51026616       0.51478330       0.57657568 </v>
    <v>       0.50817232       0.44218895       0.55086690 </v>
    <v>       0.60736088       0.48671411       0.54270691 </v>
    <v>       0.67573156       0.46836634       0.50727035 </v>
    <v>       0.41691513       0.44183876       0.47925977 </v>
    <v>       0.44780320       0.37269395       0.45519634 </v>
    <v>       0.33519607       0.49652250       0.53919436 </v>
    <v>       0.39258383       0.53915844       0.50629466 </v>
    <v>       0.49623096       0.56821300       0.47710151 </v>
    <v>       0.46825777       0.63197728       0.51715737 </v>
    <v>       0.53950860       0.52793090       0.42197437 </v>
    <v>       0.53161872       0.47098785       0.58336353 </v>
    <v>       0.64147395       0.50270588       0.50965508 </v>
    <v>       0.45985023       0.41697103       0.47112424 </v>
    <v>       0.35967427       0.50245888       0.49761758 </v>
    <v>       0.46677722       0.58342976       0.51619488 </v>
   </varray>
  </structure>
  <varray name="forces" >
   <v>       0.00051720      -0.00091426      -0.00315044 </v>
   <v>       0.00239780       0.00105815       0.00032941 </v>
   <v>      -0.00205478       0.00078755       0.00323172 </v>
   <v>      -0.00004461       0.00187174       0.00350644 </v>
   <v>       0.00049203       0.00130212       0.00006746 </v>
   <v>       0.00039796       0.00088023      -0.00126403 </v>
   <v>      -0.00016769      -0.00011500       0.00068279 </v>
   <v>       0.00109384      -0.00174430      -0.00231228 </v>
   <v>      -0.00036907      -0.00180866      -0.00181174 </v>
   <v>      -0.00470115       0.00225431       0.00225500 </v>
   <v>      -0.00067133       0.00164435      -0.00186900 </v>
   <v>      -0.00005111       0.00050497       0.00303150 </v>
   <v>      -0.00405646      -0.00154754       0.00541221 </v>
   <v>       0.00260389      -0.00576160      -0.00287794 </v>
   <v>      -0.00210858       0.00101315      -0.00075353 </v>
   <v>      -0.00011628       0.00027132      -0.00109872 </v>
   <v>       0.00403393       0.00020048      -0.00540927 </v>
   <v>       0.00280440       0.00010296       0.00203044 </v>
  </varray>
  <varray name="stress" >
   <v>      -0.92238822       0.00221858      -0.00344136 </v>
   <v>       0.00221858      -0.89633874       0.01630172 </v>
   <v>      -0.00344136       0.01630172      -0.95926236 </v>
  </varray>
  <energy>
   <i name="e_fr_energy">    -87.49048060 </i>
   <i name="e_wo_entrp">    -87.49048060 </i>
   <i name="e_0_energy">     -0.00000000 </i>
  </energy>
 </calculation>
</modeling>
