18
# CELL(abcABC):   20.00000    20.00000    20.00000    90.00000    90.00000    90.00000  Step:           0  Bead:       0 velocities{atomic_unit}  cell{angstrom}
       H -2.81770e-04  7.31900e-05 -8.78450e-04
       H -4.10140e-04  2.02780e-04  5.53900e-04
       H  8.88300e-04 -5.79320e-04  4.05520e-04
       H -9.21930e-04 -6.83110e-04 -4.92180e-04
       H -2.82290e-04 -1.44980e-04  6.77950e-04
       H  6.23400e-04  8.04130e-04 -7.35380e-04
       H  1.45508e-03  9.39000e-05  2.85430e-04
       H  1.50854e-03  7.64600e-04 -8.22750e-04
       H  7.44430e-04 -5.92350e-04  5.83000e-04
       H -5.57610e-04 -8.22090e-04  5.43640e-04
       H  9.85180e-04 -3.48070e-04 -3.08890e-04
       H  5.54420e-04 -1.40063e-03  4.43650e-04
       O -5.34000e-05 -3.00190e-04 -2.37270e-04
       O  3.62800e-05  1.46370e-04 -4.15150e-04
       O  2.50700e-05 -4.35100e-05 -1.04930e-04
       O  1.29190e-04 -6.11500e-05 -1.15400e-05
       O -2.52680e-04  9.46400e-05 -2.46570e-04
       O  5.63500e-05 -8.31100e-05 -2.91720e-04
18
# CELL(abcABC):   20.00000    20.00000    20.00000    90.00000    90.00000    90.00000  Step:           1  Bead:       0 velocities{atomic_unit}  cell{angstrom}
       H -2.83579e-04  6.35492e-05 -8.75117e-04
       H -4.07644e-04  1.97183e-04  5.52809e-04
       H  8.57398e-04 -5.25279e-04  3.95077e-04
       H -8.98525e-04 -6.50759e-04 -4.63324e-04
       H -2.57981e-04 -1.41352e-04  6.56051e-04
       H  6.23337e-04  7.96227e-04 -7.32394e-04
       H  1.41416e-03  1.06714e-04  2.86005e-04
       H  1.49053e-03  7.23613e-04 -8.37463e-04
       H  7.48818e-04 -5.93471e-04  5.67944e-04
       H -5.35385e-04 -7.96079e-04  5.43817e-04
       H  9.68155e-04 -3.42109e-04 -2.93870e-04
       H  5.57168e-04 -1.32104e-03  4.45771e-04
       O -5.31477e-05 -2.99086e-04 -2.37297e-04
       O  3.68669e-05  1.40926e-04 -4.16270e-04
       O  2.33581e-05 -4.33174e-05 -1.03846e-04
       O  1.32712e-04 -5.95077e-05 -1.07703e-05
       O -2.54302e-04  9.30826e-05 -2.45590e-04
       O  5.71588e-05 -8.84442e-05 -2.92769e-04
18
# CELL(abcABC):   20.00000    20.00000    20.00000    90.00000    90.00000    90.00000  Step:           2  Bead:       0 velocities{atomic_unit}  cell{angstrom}
       H -2.88852e-04  3.44964e-05 -8.64672e-04
       H -4.01588e-04  1.79928e-04  5.49575e-04
       H  7.69181e-04 -3.67476e-04  3.64050e-04
       H -8.30182e-04 -5.56794e-04 -3.81283e-04
       H -1.90551e-04 -1.29352e-04  5.92925e-04
       H  6.25813e-04  7.76077e-04 -7.23233e-04
       H  1.29259e-03  1.45173e-04  2.89906e-04
       H  1.43838e-03  6.06297e-04 -8.80615e-04
       H  7.60270e-04 -5.97282e-04  5.23463e-04
       H -4.68005e-04 -7.19280e-04  5.42091e-04
       H  9.19620e-04 -3.25681e-04 -2.52139e-04
       H  5.65811e-04 -1.08705e-03  4.52344e-04
       O -5.24333e-05 -2.95900e-04 -2.37384e-04
       O  3.84891e-05  1.25090e-04 -4.19483e-04
       O  1.84280e-05 -4.29214e-05 -1.00642e-04
       O  1.43134e-04 -5.48919e-05 -8.51303e-06
       O -2.59108e-04  8.85865e-05 -2.42585e-04
       O  5.94269e-05 -1.04145e-04 -2.95862e-04
18
# CELL(abcABC):   20.00000    20.00000    20.00000    90.00000    90.00000    90.00000  Step:           3  Bead:       0 velocities{atomic_unit}  cell{angstrom}
       H -2.96449e-04 -1.10443e-05 -8.47450e-04
       H -3.93265e-04  1.51366e-04  5.43279e-04
       H  6.31300e-04 -1.19638e-04  3.15926e-04
       H -7.25239e-04 -4.12528e-04 -2.59200e-04
       H -8.78214e-05 -1.11852e-04  4.95411e-04
       H  6.28540e-04  7.46789e-04 -7.08145e-04
       H  1.09637e-03  2.07397e-04  2.96584e-04
       H  1.35760e-03  4.28584e-04 -9.48131e-04
       H  7.75918e-04 -6.03911e-04  4.52740e-04
       H -3.60135e-04 -5.97551e-04  5.38107e-04
       H  8.43180e-04 -3.00282e-04 -1.89213e-04
       H  5.81396e-04 -7.22407e-04  4.64830e-04
       O -5.12484e-05 -2.90857e-04 -2.37471e-04
       O  4.11916e-05  1.00443e-04 -4.24177e-04
       O  1.09353e-05 -4.23303e-05 -9.57295e-05
       O  1.59712e-04 -4.81540e-05 -4.98541e-06
       O -2.66603e-04  8.15187e-05 -2.37727e-04
       O  6.28383e-05 -1.28641e-04 -3.00746e-04
18
# CELL(abcABC):   20.00000    20.00000    20.00000    90.00000    90.00000    90.00000  Step:           4  Bead:       0 velocities{atomic_unit}  cell{angstrom}
       H -3.04434e-04 -6.85172e-05 -8.23769e-04
       H -3.84265e-04  1.12113e-04  5.32810e-04
       H  4.59659e-04  1.86689e-04  2.56020e-04
       H -5.94225e-04 -2.31888e-04 -1.12005e-04
       H  4.10256e-05 -9.21780e-05  3.71993e-04
       H  6.28408e-04  7.12116e-04 -6.87313e-04
       H  8.40464e-04  2.86114e-04  3.03602e-04
       H  1.25577e-03  2.17788e-04 -1.03066e-03
       H  7.91887e-04 -6.13761e-04  3.61645e-04
       H -2.21866e-04 -4.42501e-04  5.29945e-04
       H  7.43900e-04 -2.67736e-04 -1.11945e-04
       H  6.03189e-04 -2.79348e-04  4.82598e-04
       O -4.96314e-05 -2.84302e-04 -2.37493e-04
       O  4.46211e-05  6.98497e-05 -4.29729e-04
       O  1.68979e-06 -4.15615e-05 -8.96201e-05
       O  1.81017e-04 -4.05136e-05 -6.32104e-07
       O -2.75881e-04  7.26217e-05 -2.31267e-04
       O  6.70972e-05 -1.58544e-04 -3.06941e-04
18
# CELL(abcABC):   20.00000    20.00000    20.00000    90.00000    90.00000    90.00000  Step:           5  Bead:       0 velocities{atomic_unit}  cell{angstrom}
       H -3.10276e-04 -1.32209e-04 -7.93859e-04
       H -3.76256e-04  6.30182e-05  5.17009e-04
       H  2.76157e-04  5.06189e-04  1.90464e-04
       H -4.48842e-04 -3.01237e-05  4.50055e-05
       H  1.86271e-04 -7.37877e-05  2.32032e-04
       H  6.21997e-04  6.75948e-04 -6.60921e-04
       H  5.47705e-04  3.68988e-04  3.06679e-04
       H  1.14121e-03  8.00768e-06 -1.11491e-03
       H  8.03949e-04 -6.27429e-04  2.57905e-04
       H -6.78309e-05 -2.70301e-04  5.14165e-04
       H  6.27809e-04 -2.30079e-04 -2.78109e-05
       H  6.28372e-04  1.70235e-04  5.02438e-04
       O -4.76672e-05 -2.76673e-04 -2.37394e-04
       O  4.81075e-05  3.71204e-05 -4.35532e-04
       O -8.42973e-06 -4.06304e-05 -8.28803e-05
       O  2.05087e-04 -3.32934e-05  3.95329e-06
       O -2.85722e-04  6.29335e-05 -2.23486e-04
       O  7.19794e-05 -1.89208e-04 -3.13746e-04
18
# CELL(abcABC):   20.00000    20.00000    20.00000    90.00000    90.00000    90.00000  Step:           6  Bead:       0 velocities{atomic_unit}  cell{angstrom}
       H -3.11198e-04 -1.95902e-04 -7.57854e-04
       H -3.70738e-04  5.15993e-06  4.94839e-04
       H  1.04064e-04  7.89430e-04  1.24799e-04
       H -3.01427e-04  1.76913e-04  1.96807e-04
       H  3.38152e-04 -6.00808e-05  8.52967e-05
       H  6.06178e-04  6.41776e-04 -6.29223e-04
       H  2.45554e-04  4.40580e-04  3.00346e-04
       H  1.02140e-03 -1.66914e-04 -1.18630e-03
       H  8.08126e-04 -6.45607e-04  1.50246e-04
       H  8.49404e-05 -9.92422e-05  4.86413e-04
       H  5.01480e-04 -1.89487e-04  5.56804e-05
       H  6.52608e-04  5.52809e-04  5.19091e-04
       O -4.54777e-05 -2.68458e-04 -2.37133e-04
       O  5.09254e-05  6.36066e-06 -4.40950e-04
       O -1.85456e-05 -3.95266e-05 -7.60994e-05
       O  2.29717e-04 -2.76049e-05  8.15757e-06
       O -2.94769e-04  5.36267e-05 -2.14669e-04
       O  7.73255e-05 -2.15869e-04 -3.20323e-04
18
# CELL(abcABC):   20.00000    20.00000    20.00000    90.00000    90.00000    90.00000  Step:           7  Bead:       0 velocities{atomic_unit}  cell{angstrom}
       H -3.04594e-04 -2.53607e-04 -7.15843e-04
       H -3.68847e-04 -6.01775e-05  4.65534e-04
       H -3.71632e-05  9.94370e-04  6.28389e-05
       H -1.64715e-04  3.73138e-04  3.28830e-04
       H  4.87080e-04 -5.43486e-05 -5.82790e-05
       H  5.78662e-04  6.12219e-04 -5.92560e-04
       H -3.85610e-05  4.85488e-04  2.79074e-04
       H  9.01941e-04 -2.80344e-04 -1.23203e-03
       H  8.01139e-04 -6.68952e-04  4.74806e-05
       H  2.19873e-04  5.33435e-05  4.42393e-04
       H  3.71685e-04 -1.48262e-04  1.31376e-04
       H  6.71303e-04  8.12003e-04  5.26761e-04
       O -4.32023e-05 -2.60141e-04 -2.36689e-04
       O  5.26062e-05 -1.87761e-05 -4.45262e-04
       O -2.78356e-05 -3.81909e-05 -6.98724e-05
       O  2.52822e-04 -2.41108e-05  1.14800e-05
       O -3.01735e-04  4.58071e-05 -2.05114e-04
       O  8.29846e-05 -2.34832e-04 -3.25821e-04
18
# CELL(abcABC):   20.00000    20.00000    20.00000    90.00000    90.00000    90.00000  Step:           8  Bead:       0 velocities{atomic_unit}  cell{angstrom}
       H -2.88450e-04 -3.00255e-04 -6.67957e-04
       H -3.71195e-04 -1.31542e-04  4.28700e-04
       H -1.35348e-04  1.09463e-03  6.31876e-06
       H -5.15700e-05  5.42627e-04  4.27121e-04
       H  6.23733e-04 -5.97714e-05 -1.88756e-04
       H  5.38477e-04  5.88737e-04 -5.51427e-04
       H -2.81717e-04  4.91548e-04  2.38517e-04
       H  7.86177e-04 -3.17195e-04 -1.24343e-03
       H  7.80728e-04 -6.97939e-04 -4.24052e-05
       H  3.23495e-04  1.73778e-04  3.78882e-04
       H  2.45078e-04 -1.08797e-04  1.92755e-04
       H  6.80864e-04  9.19220e-04  5.20792e-04
       O -4.09798e-05 -2.52152e-04 -2.36064e-04
       O  5.31443e-05 -3.56353e-05 -4.47661e-04
       O -3.55738e-05 -3.64994e-05 -6.47858e-05
       O  2.72739e-04 -2.29526e-05  1.36163e-05
       O -3.05591e-04  4.03355e-05 -1.95139e-04
       O  8.87550e-05 -2.44140e-04 -3.29499e-04
18
# CELL(abcABC):   20.00000    20.00000    20.00000    90.00000    90.00000    90.00000  Step:           9  Bead:       0 velocities{atomic_unit}  cell{angstrom}
       H -2.61659e-04 -3.32223e-04 -6.14460e-04
       H -3.77746e-04 -2.07352e-04  3.84396e-04
       H -1.86295e-04  1.08175e-03 -4.46747e-05
       H  2.55714e-05  6.70356e-04  4.78856e-04
       H  7.39168e-04 -7.93958e-05 -2.96399e-04
       H  4.86243e-04  5.71561e-04 -5.06554e-04
       H -4.68387e-04  4.51978e-04  1.76378e-04
       H  6.75622e-04 -2.74706e-04 -1.21707e-03
       H  7.45835e-04 -7.32704e-04 -1.13088e-04
       H  3.87113e-04  2.53623e-04  2.94485e-04
       H  1.27879e-04 -7.34889e-05  2.34171e-04
       H  6.79358e-04  8.73272e-04  4.98695e-04
       O -3.89311e-05 -2.44834e-04 -2.35283e-04
       O  5.30107e-05 -4.27585e-05 -4.47309e-04
       O -4.11604e-05 -3.42610e-05 -6.14001e-05
       O  2.88396e-04 -2.38337e-05  1.44770e-05
       O -3.05694e-04  3.77233e-05 -1.85071e-04
       O  9.43600e-05 -2.43561e-04 -3.30811e-04
18
# CELL(abcABC):   20.00000    20.00000    20.00000    90.00000    90.00000    90.00000  Step:          10  Bead:       0 velocities{atomic_unit}  cell{angstrom}
       H -2.24194e-04 -3.47633e-04 -5.55841e-04
       H -3.87788e-04 -2.85944e-04  3.33170e-04
       H -1.92377e-04  9.62619e-04 -9.09661e-05
       H  5.58337e-05  7.43504e-04  4.73465e-04
       H  8.25136e-04 -1.16007e-04 -3.72140e-04
       H  4.24201e-04  5.59758e-04 -4.58933e-04
       H -5.91104e-04  3.65879e-04  9.26729e-05
       H  5.70605e-04 -1.60583e-04 -1.15462e-03
       H  6.96734e-04 -7.72920e-04 -1.60626e-04
       H  4.07213e-04  2.89881e-04  1.89900e-04
       H  2.55983e-05 -4.46289e-05  2.51043e-04
       H  6.66490e-04  6.93038e-04  4.60276e-04
       O -3.71466e-05 -2.38417e-04 -2.34390e-04
       O  5.29952e-05 -3.98020e-05 -4.43463e-04
       O -4.41517e-05 -3.12318e-05 -6.02201e-05
       O  2.99313e-04 -2.61741e-05  1.41597e-05
       O -3.01827e-04  3.81093e-05 -1.75210e-04
       O  9.94676e-05 -2.34120e-04 -3.29432e-04
18
# CELL(abcABC):   20.00000    20.00000    20.00000    90.00000    90.00000    90.00000  Step:          11  Bead:       0 velocities{atomic_unit}  cell{angstrom}
       H -1.77151e-04 -3.46382e-04 -4.92873e-04
       H -3.99956e-04 -3.65618e-04  2.76084e-04
       H -1.60260e-04  7.54659e-04 -1.33592e-04
       H  3.18336e-05  7.53533e-04  4.04577e-04
       H  8.74697e-04 -1.71825e-04 -4.08356e-04
       H  3.56042e-04  5.51407e-04 -4.09761e-04
       H -6.49357e-04  2.37420e-04 -1.05162e-05
       H  4.70831e-04  1.00695e-05 -1.06181e-03
       H  6.35073e-04 -8.17666e-04 -1.83998e-04
       H  3.84846e-04  2.84207e-04  6.77728e-05
       H -5.73093e-05 -2.42294e-05  2.40114e-04
       H  6.43267e-04  4.08760e-04  4.07264e-04
       O -3.56813e-05 -2.33016e-04 -2.33449e-04
       O  5.39492e-05 -2.73609e-05 -4.35639e-04
       O -4.42960e-05 -2.71449e-05 -6.16444e-05
       O  3.05504e-04 -2.92541e-05  1.29043e-05
       O -2.94162e-04  4.13038e-05 -1.65785e-04
       O  1.03735e-04 -2.17568e-04 -3.25255e-04
18
# CELL(abcABC):   20.00000    20.00000    20.00000    90.00000    90.00000    90.00000  Step:          12  Bead:       0 velocities{atomic_unit}  cell{angstrom}
       H -1.22661e-04 -3.29983e-04 -4.26625e-04
       H -4.12327e-04 -4.44683e-04  2.14655e-04
       H -9.88735e-05  4.81286e-04 -1.73364e-04
       H -4.77539e-05  6.98805e-04  2.72538e-04
       H  8.83207e-04 -2.48040e-04 -4.00027e-04
       H  2.86557e-04  5.43895e-04 -3.60397e-04
       H -6.47659e-04  7.43024e-05 -1.29608e-04
       H  3.75763e-04  2.17764e-04 -9.47260e-04
       H  5.63765e-04 -8.65345e-04 -1.85354e-04
       H  3.24530e-04  2.41684e-04 -6.77420e-05
       H -1.17830e-04 -1.38260e-05  1.99741e-04
       H  6.11621e-04  5.54704e-05  3.42816e-04
       O -3.45548e-05 -2.28636e-04 -2.32530e-04
       O  5.65039e-05 -6.84063e-06 -4.23796e-04
       O -4.15772e-05 -2.17598e-05 -6.58972e-05
       O  3.07329e-04 -3.23113e-05  1.10508e-05
       O -2.83195e-04  4.68625e-05 -1.56915e-04
       O  1.06858e-04 -1.95987e-04 -3.18382e-04
18
# CELL(abcABC):   20.00000    20.00000    20.00000    90.00000    90.00000    90.00000  Step:          13  Bead:       0 velocities{atomic_unit}  cell{angstrom}
       H -6.36661e-05 -3.01295e-04 -3.58432e-04
       H -4.22556e-04 -5.21516e-04  1.50765e-04
       H -1.81146e-05  1.68761e-04 -2.10745e-04
       H -1.75795e-04  5.86788e-04  8.65713e-05
       H  8.49550e-04 -3.44168e-04 -3.46165e-04
       H  2.21164e-04  5.34278e-04 -3.12312e-04
       H -5.93646e-04 -1.13809e-04 -2.60121e-04
       H  2.84762e-04  4.40947e-04 -8.21364e-04
       H  4.86765e-04 -9.13685e-04 -1.69822e-04
       H  2.33076e-04  1.69554e-04 -2.11513e-04
       H -1.54746e-04 -1.42931e-05  1.30195e-04
       H  5.74148e-04 -3.30521e-04  2.71129e-04
       O -3.37519e-05 -2.25182e-04 -2.31707e-04
       O  6.08387e-05  1.96044e-05 -4.08479e-04
       O -3.62617e-05 -1.49239e-05 -7.29466e-05
       O  3.05353e-04 -3.45929e-05  9.00772e-06
       O -2.69652e-04  5.41652e-05 -1.48588e-04
       O  1.08614e-04 -1.71576e-04 -3.09114e-04
18
# CELL(abcABC):   20.00000    20.00000    20.00000    90.00000    90.00000    90.00000  Step:          14  Bead:       0 velocities{atomic_unit}  cell{angstrom}
       H -3.67398e-06 -2.64159e-04 -2.89833e-04
       H -4.28056e-04 -5.94594e-04  8.65190e-05
       H  7.17289e-05 -1.55484e-04 -2.45947e-04
       H -3.35783e-04  4.34543e-04 -1.34724e-04
       H  7.77178e-04 -4.57368e-04 -2.51084e-04
       H  1.65339e-04  5.19675e-04 -2.66997e-04
       H -4.96645e-04 -3.16486e-04 -3.97151e-04
       H  1.97167e-04  6.57626e-04 -6.95399e-04
       H  4.08659e-04 -9.59775e-04 -1.44809e-04
       H  1.18656e-04  7.62609e-05 -3.57912e-04
       H -1.68954e-04 -2.56581e-05  3.39380e-05
       H  5.34010e-04 -7.12823e-04  1.97184e-04
       O -3.32255e-05 -2.22488e-04 -2.31045e-04
       O  6.65872e-05  4.91462e-05 -3.90842e-04
       O -2.89268e-05 -6.63791e-06 -8.24316e-05
       O  3.00252e-04 -3.53833e-05  7.22695e-06
       O -2.54410e-04  6.24832e-05 -1.40678e-04
       O  1.08885e-04 -1.46593e-04 -2.97950e-04
18
# CELL(abcABC):   20.00000    20.00000    20.00000    90.00000    90.00000    90.00000  Step:          15  Bead:       0 velocities{atomic_unit}  cell{angstrom}
       H  5.34976e-05 -2.23023e-04 -2.22484e-04
       H -4.26236e-04 -6.62513e-04  2.40706e-05
       H  1.60086e-04 -4.63523e-04 -2.79115e-04
       H -5.03663e-04  2.66318e-04 -3.65667e-04
       H  6.74471e-04 -5.82050e-04 -1.24959e-04
       H  1.23961e-04  4.97669e-04 -2.25830e-04
       H -3.66851e-04 -5.23271e-04 -5.35700e-04
       H  1.12363e-04  8.46589e-04 -5.80909e-04
       H  3.34171e-04 -1.00023e-03 -1.18898e-04
       H -9.80628e-06 -2.91547e-05 -5.01179e-04
       H -1.63576e-04 -4.69865e-05 -8.42777e-05
       H  4.94955e-04 -1.05503e-03  1.26611e-04
       O -3.28994e-05 -2.20337e-04 -2.30596e-04
       O  7.29379e-05  7.84781e-05 -3.72494e-04
       O -2.04402e-05  2.89404e-06 -9.36361e-05
       O  2.92756e-04 -3.40338e-05  6.17587e-06
       O -2.38413e-04  7.10315e-05 -1.32997e-04
       O  1.07664e-04 -1.23359e-04 -2.85579e-04
18
# CELL(abcABC):   20.00000    20.00000    20.00000    90.00000    90.00000    90.00000  Step:          16  Bead:       0 velocities{atomic_unit}  cell{angstrom}
       H  1.03981e-04 -1.82576e-04 -1.58045e-04
       H -4.14772e-04 -7.23989e-04 -3.45864e-05
       H  2.36072e-04 -7.27295e-04 -3.10544e-04
       H -6.52456e-04  1.08504e-04 -5.78474e-04
       H  5.53991e-04 -7.10012e-04  1.68877e-05
       H  1.00621e-04  4.66706e-04 -1.89925e-04
       H -2.15018e-04 -7.24015e-04 -6.70839e-04
       H  2.98942e-05  9.88649e-04 -4.89016e-04
       H  2.67649e-04 -1.03152e-03 -1.00497e-04
       H -1.42948e-04 -1.37368e-04 -6.35674e-04
       H -1.43761e-04 -7.63770e-05 -2.17603e-04
       H  4.61353e-04 -1.32093e-03  6.55984e-05
       O -3.26718e-05 -2.18489e-04 -2.30391e-04
       O  7.89195e-05  1.04157e-04 -3.55170e-04
       O -1.18654e-05  1.32500e-05 -1.05542e-04
       O  2.83621e-04 -3.00182e-05  6.29766e-06
       O -2.22619e-04  7.90085e-05 -1.25355e-04
       O  1.05043e-04 -1.04250e-04 -2.72860e-04
18
# CELL(abcABC):   20.00000    20.00000    20.00000    90.00000    90.00000    90.00000  Step:          17  Bead:       0 velocities{atomic_unit}  cell{angstrom}
       H  1.44126e-04 -1.47361e-04 -9.80743e-05
       H -3.91896e-04 -7.77844e-04 -8.78498e-05
       H  2.88664e-04 -9.19420e-04 -3.40843e-04
       H -7.58135e-04 -1.62444e-05 -7.49153e-04
       H  4.30539e-04 -8.31250e-04  1.56105e-04
       H  9.69907e-05  4.26444e-04 -1.60007e-04
       H -5.25005e-05 -9.08957e-04 -7.97802e-04
       H -5.03691e-05  1.06831e-03 -4.29422e-04
       H  2.12584e-04 -1.05036e-03 -9.65432e-05
       H -2.71137e-04 -2.38916e-04 -7.56068e-04
       H -1.16123e-04 -1.11077e-04 -3.57639e-04
       H  4.38117e-04 -1.47614e-03  2.05864e-05
       O -3.24179e-05 -2.16703e-04 -2.30432e-04
       O  8.37539e-05  1.23025e-04 -3.40351e-04
       O -4.29525e-06  2.38226e-05 -1.16966e-04
       O  2.73624e-04 -2.30243e-05  7.94781e-06
       O -2.07950e-04  8.56324e-05 -1.17637e-04
       O  1.01179e-04 -9.16016e-05 -2.60762e-04
18
# CELL(abcABC):   20.00000    20.00000    20.00000    90.00000    90.00000    90.00000  Step:          18  Bead:       0 velocities{atomic_unit}  cell{angstrom}
       H  1.70766e-04 -1.21377e-04 -4.39069e-05
       H -3.56662e-04 -8.23011e-04 -1.34708e-04
       H  3.07448e-04 -1.01514e-03 -3.70996e-04
       H -8.04318e-04 -9.32961e-05 -8.61893e-04
       H  3.18485e-04 -9.35391e-04  2.74418e-04
       H  1.12370e-04  3.77995e-04 -1.36329e-04
       H  1.08541e-04 -1.06868e-03 -9.12048e-04
       H -1.27956e-04  1.07580e-03 -4.09006e-04
       H  1.71308e-04 -1.05409e-03 -1.11542e-04
       H -3.84627e-04 -3.24334e-04 -8.57518e-04
       H -8.78347e-05 -1.47751e-04 -4.95343e-04
       H  4.30244e-04 -1.49202e-03 -2.49196e-06
       O -3.19953e-05 -2.14770e-04 -2.30688e-04
       O  8.70999e-05  1.32600e-04 -3.28981e-04
       O  1.35149e-06  3.38960e-05 -1.26762e-04
       O  2.63552e-04 -1.30794e-05  1.13067e-05
       O -1.95255e-04  9.01736e-05 -1.09853e-04
       O  9.62655e-05 -8.74459e-05 -2.50250e-04
18
# CELL(abcABC):   20.00000    20.00000    20.00000    90.00000    90.00000    90.00000  Step:          19  Bead:       0 velocities{atomic_unit}  cell{angstrom}
       H  1.81516e-04 -1.07672e-04  3.44268e-06
       H -3.09135e-04 -8.58510e-04 -1.74871e-04
       H  2.84171e-04 -9.95896e-04 -4.02220e-04
       H -7.84157e-04 -1.17390e-04 -9.10547e-04
       H  2.29241e-04 -1.01334e-03  3.56741e-04
       H  1.43566e-04  3.23952e-04 -1.18654e-04
       H  2.54949e-04 -1.19411e-03 -1.00938e-03
       H -2.01379e-04  1.00930e-03 -4.30196e-04
       H  1.44862e-04 -1.04101e-03 -1.46983e-04
       H -4.73896e-04 -3.84501e-04 -9.35897e-04
       H -6.55658e-05 -1.82853e-04 -6.22105e-04
       H  4.41760e-04 -1.35241e-03  4.88739e-07
       O -3.12523e-05 -2.12539e-04 -2.31097e-04
       O  8.90746e-05  1.31385e-04 -3.21386e-04
       O  4.50398e-06  4.27436e-05 -1.34012e-04
       O  2.54183e-04 -6.84240e-07  1.62790e-05
       O -1.85272e-04  9.19911e-05 -1.02160e-04
       O  9.05264e-05 -9.30531e-05 -2.42137e-04
18
# CELL(abcABC):   20.00000    20.00000    20.00000    90.00000    90.00000    90.00000  Step:          20  Bead:       0 velocities{atomic_unit}  cell{angstrom}
       H  1.75029e-04 -1.07945e-04  4.33514e-05
       H -2.50469e-04 -8.83420e-04 -2.08808e-04
       H  2.15124e-04 -8.54631e-04 -4.35637e-04
       H -6.99546e-04 -9.13224e-05 -8.97427e-04
       H  1.69676e-04 -1.05860e-03  3.93290e-04
       H  1.85184e-04  2.68157e-04 -1.06322e-04
       H  3.72765e-04 -1.27686e-03 -1.08620e-03
       H -2.67779e-04  8.76608e-04 -4.89492e-04
       H  1.33021e-04 -1.01065e-03 -2.01220e-04
       H -5.30279e-04 -4.11258e-04 -9.88083e-04
       H -5.45264e-05 -2.13023e-04 -7.30749e-04
       H  4.74234e-04 -1.06241e-03  3.00682e-05
       O -3.00422e-05 -2.09946e-04 -2.31565e-04
       O  9.00550e-05  1.19117e-04 -3.17358e-04
       O  5.02512e-06  4.97212e-05 -1.38159e-04
       O  2.46245e-04  1.31012e-05  2.24127e-05
       O -1.78587e-04  9.05816e-05 -9.48566e-05
       O  8.42482e-05 -1.08345e-04 -2.36902e-04
18
# CELL(abcABC):   20.00000    20.00000    20.00000    90.00000    90.00000    90.00000  Step:          21  Bead:       0 velocities{atomic_unit}  cell{angstrom}
       H  1.51195e-04 -1.22224e-04  7.56212e-05
       H -1.82869e-04 -8.96894e-04 -2.37710e-04
       H  1.03771e-04 -6.01205e-04 -4.71820e-04
       H -5.58897e-04 -2.33932e-05 -8.30804e-04
       H  1.41796e-04 -1.06785e-03  3.80305e-04
       H  2.30335e-04  2.15241e-04 -9.83840e-05
       H  4.48104e-04 -1.30971e-03 -1.13978e-03
       H -3.22801e-04  6.95103e-04 -5.76901e-04
       H  1.34413e-04 -9.63920e-04 -2.69767e-04
       H -5.46947e-04 -3.98356e-04 -1.01230e-03
       H -5.78359e-05 -2.35432e-04 -8.16251e-04
       H  5.25224e-04 -6.55187e-04  8.15325e-05
       O -2.82396e-05 -2.07031e-04 -2.31979e-04
       O  9.03678e-05  9.69539e-05 -3.16344e-04
       O  3.19092e-06  5.43362e-05 -1.39036e-04
       O  2.40351e-04  2.66956e-05  2.88849e-05
       O -1.75575e-04  8.56414e-05 -8.83454e-05
       O  7.78374e-05 -1.31442e-04 -2.34550e-04
18
# CELL(abcABC):   20.00000    20.00000    20.00000    90.00000    90.00000    90.00000  Step:          22  Bead:       0 velocities{atomic_unit}  cell{angstrom}
       H  1.11251e-04 -1.48719e-04  1.00465e-04
       H -1.09429e-04 -8.98190e-04 -2.63346e-04
       H -3.76777e-05 -2.65277e-04 -5.10371e-04
       H -3.74739e-04  7.50546e-05 -7.22441e-04
       H  1.43438e-04 -1.04086e-03  3.19522e-04
       H  2.71659e-04  1.69955e-04 -9.37815e-05
       H  4.68874e-04 -1.28749e-03 -1.16851e-03
       H -3.60882e-04  4.89309e-04 -6.76967e-04
       H  1.46717e-04 -9.03053e-04 -3.45812e-04
       H -5.20246e-04 -3.42754e-04 -1.00842e-03
       H -7.63182e-05 -2.48095e-04 -8.76061e-04
       H  5.87583e-04 -1.90925e-04  1.44605e-04
       O -2.57572e-05 -2.03950e-04 -2.32212e-04
       O  9.00302e-05  6.74995e-05 -3.17629e-04
       O -4.15717e-07  5.62856e-05 -1.36827e-04
       O  2.36916e-04  3.82037e-05  3.45937e-05
       O -1.76327e-04  7.71401e-05 -8.30758e-05
       O  7.18468e-05 -1.58709e-04 -2.34574e-04
18
# CELL(abcABC):   20.00000    20.00000    20.00000    90.00000    90.00000    90.00000  Step:          23  Bead:       0 velocities{atomic_unit}  cell{angstrom}
       H  5.77489e-05 -1.83877e-04  1.18450e-04
       H -3.38391e-05 -8.86709e-04 -2.87822e-04
       H -1.89233e-04  1.06604e-04 -5.49738e-04
       H -1.61777e-04  1.91386e-04 -5.85797e-04
       H  1.69513e-04 -9.80060e-04  2.16901e-04
       H  3.02446e-04  1.36466e-04 -9.15147e-05
       H  4.27257e-04 -1.20837e-03 -1.17238e-03
       H -3.76094e-04  2.86452e-04 -7.71481e-04
       H  1.66943e-04 -8.31408e-04 -4.20915e-04
       H -4.51126e-04 -2.45960e-04 -9.78065e-04
       H -1.08768e-04 -2.50025e-04 -9.09963e-04
       H  6.50603e-04  2.55510e-04  2.05389e-04
       O -2.25620e-05 -2.00957e-04 -2.32139e-04
       O  8.86877e-05  3.45090e-05 -3.20460e-04
       O -5.05048e-06  5.54693e-05 -1.31972e-04
       O  2.36057e-04  4.57756e-05  3.83533e-05
       O -1.80573e-04  6.53934e-05 -7.94884e-05
       O  6.69174e-05 -1.85525e-04 -2.36092e-04
18
# CELL(abcABC):   20.00000    20.00000    20.00000    90.00000    90.00000    90.00000  Step:          24  Bead:       0 velocities{atomic_unit}  cell{angstrom}
       H -5.65916e-06 -2.22728e-04  1.30415e-04
       H  3.99855e-05 -8.62071e-04 -3.13294e-04
       H -3.27224e-04  4.60478e-04 -5.87534e-04
       H  6.43614e-05  3.12630e-04 -4.35022e-04
       H  2.13232e-04 -8.89993e-04  8.12547e-05
       H  3.17619e-04  1.17769e-04 -9.07776e-05
       H  3.22594e-04 -1.07503e-03 -1.15307e-03
       H -3.63380e-04  1.11201e-04 -8.43119e-04
       H  1.91745e-04 -7.53195e-04 -4.85804e-04
       H -3.46187e-04 -1.14977e-04 -9.24629e-04
       H -1.52472e-04 -2.41258e-04 -9.19634e-04
       H  7.02812e-04  6.14169e-04  2.49978e-04
       O -1.86835e-05 -1.98382e-04 -2.31649e-04
       O  8.57968e-05  2.23316e-06 -3.24094e-04
       O -9.94581e-06  5.19887e-05 -1.25074e-04
       O  2.37487e-04  4.80200e-05  3.91376e-05
       O -1.87647e-04  5.11050e-05 -7.79668e-05
       O  6.36336e-05 -2.07518e-04 -2.38101e-04
18
# CELL(abcABC):   20.00000    20.00000    20.00000    90.00000    90.00000    90.00000  Step:          25  Bead:       0 velocities{atomic_unit}  cell{angstrom}
       H -7.46099e-05 -2.59501e-04  1.37363e-04
       H  1.08301e-04 -8.24228e-04 -3.41694e-04
       H -4.30081e-04  7.47565e-04 -6.21264e-04
       H  2.87770e-04  4.25848e-04 -2.84577e-04
       H  2.67082e-04 -7.76740e-04 -7.69427e-05
       H  3.14382e-04  1.15297e-04 -9.10395e-05
       H  1.63748e-04 -8.95214e-04 -1.11363e-03
       H -3.19735e-04 -1.85673e-05 -8.78737e-04
       H  2.17727e-04 -6.73040e-04 -5.31231e-04
       H -2.17662e-04  3.77283e-05 -8.52916e-04
       H -2.03832e-04 -2.22753e-04 -9.08068e-04
       H  7.35054e-04  8.37203e-04  2.68017e-04
       O -1.42122e-05 -1.96589e-04 -2.30660e-04
       O  8.09509e-05 -2.54046e-05 -3.27781e-04
       O -1.44151e-05  4.61308e-05 -1.16818e-04
       O  2.40442e-04  4.43168e-05  3.62790e-05
       O -1.96509e-04  3.53400e-05 -7.88027e-05
       O  6.23683e-05 -2.21652e-04 -2.39745e-04
18
# CELL(abcABC):   20.00000    20.00000    20.00000    90.00000    90.00000    90.00000  Step:          26  Bead:       0 velocities{atomic_unit}  cell{angstrom}
       H -1.44508e-04 -2.88376e-04  1.40373e-04
       H  1.67898e-04 -7.73556e-04 -3.74493e-04
       H -4.83162e-04  9.34426e-04 -6.49029e-04
       H  4.92614e-04  5.18255e-04 -1.49111e-04
       H  3.23420e-04 -6.47413e-04 -2.46410e-04
       H  2.92461e-04  1.28803e-04 -9.20530e-05
       H -3.03289e-05 -6.81551e-04 -1.05802e-03
       H -2.44884e-04 -9.37750e-05 -8.71224e-04
       H  2.41786e-04 -5.95470e-04 -5.48993e-04
       H -8.19361e-05  1.95660e-04 -7.68433e-04
       H -2.58998e-04 -1.96198e-04 -8.78963e-04
       H  7.42320e-04  9.05801e-04  2.54628e-04
       O -9.28941e-06 -1.95922e-04 -2.29124e-04
       O  7.41672e-05 -4.54609e-05 -3.30733e-04
       O -1.79095e-05  3.83478e-05 -1.07917e-04
       O  2.43696e-04  3.49210e-05  2.95546e-05
       O -2.05862e-04  1.94069e-05 -8.21754e-05
       O  6.32061e-05 -2.26668e-04 -2.40472e-04
18
# CELL(abcABC):   20.00000    20.00000    20.00000    90.00000    90.00000    90.00000  Step:          27  Bead:       0 velocities{atomic_unit}  cell{angstrom}
       H -2.11021e-04 -3.04279e-04  1.40515e-04
       H  2.16378e-04 -7.10868e-04 -4.12546e-04
       H -4.80716e-04  1.00686e-03 -6.69890e-04
       H  6.63560e-04  5.77429e-04 -4.32537e-05
       H  3.74736e-04 -5.09779e-04 -4.15576e-04
       H  2.54017e-04  1.56460e-04 -9.38257e-05
       H -2.32948e-04 -4.49994e-04 -9.90413e-04
       H -1.41292e-04 -1.13860e-04 -8.19658e-04
       H  2.61506e-04 -5.24364e-04 -5.33109e-04
       H  4.31949e-05  3.40958e-04 -6.76526e-04
       H -3.14317e-04 -1.63770e-04 -8.36241e-04
       H  7.23845e-04  8.26678e-04  2.10220e-04
       O -4.08852e-06 -1.96655e-04 -2.27043e-04
       O  6.59873e-05 -5.62327e-05 -3.32111e-04
       O -2.00337e-05  2.92293e-05 -9.90794e-05
       O  2.45703e-04  2.08386e-05  1.91542e-05
       O -2.14360e-04  4.65650e-06 -8.81334e-05
       O  6.59642e-05 -2.22878e-04 -2.40043e-04
18
# CELL(abcABC):   20.00000    20.00000    20.00000    90.00000    90.00000    90.00000  Step:          28  Bead:       0 velocities{atomic_unit}  cell{angstrom}
       H -2.70487e-04 -3.03557e-04  1.38785e-04
       H  2.52350e-04 -6.37393e-04 -4.56001e-04
       H -4.24947e-04  9.67715e-04 -6.83837e-04
       H  7.86637e-04  5.91943e-04  1.91011e-05
       H  4.13757e-04 -3.72003e-04 -5.72921e-04
       H  2.03269e-04  1.95121e-04 -9.65650e-05
       H -4.14685e-04 -2.17148e-04 -9.14379e-04
       H -1.36295e-05 -8.50314e-05 -7.28344e-04
       H  2.75528e-04 -4.62369e-04 -4.80917e-04
       H  1.41738e-04  4.57515e-04 -5.81681e-04
       H -3.66600e-04 -1.27858e-04 -7.83677e-04
       H  6.82088e-04  6.23415e-04  1.39006e-04
       O  1.20553e-06 -1.98947e-04 -2.24463e-04
       O  5.73685e-05 -5.71584e-05 -3.31071e-04
       O -2.05335e-05  1.94705e-05 -9.09954e-05
       O  2.44883e-04  3.54967e-06  5.57337e-06
       O -2.20833e-04 -7.75190e-06 -9.65710e-05
       O  7.02723e-05 -2.11633e-04 -2.38477e-04
18
# CELL(abcABC):   20.00000    20.00000    20.00000    90.00000    90.00000    90.00000  Step:          29  Bead:       0 velocities{atomic_unit}  cell{angstrom}