18
# CELL(abcABC):   20.00000    20.00000    20.00000    90.00000    90.00000    90.00000  Step:           0  Bead:       0 positions{angstrom}  cell{angstrom}
       H  1.03137e+01  9.68462e+00  8.48530e+00
       H  1.16498e+01  1.03719e+01  8.90722e+00
       H  1.02061e+01  1.02963e+01  1.15311e+01
       H  1.01640e+01  8.84322e+00  1.10205e+01
       H  1.21466e+01  9.73783e+00  1.08567e+01
       H  1.35316e+01  9.39050e+00  1.01688e+01
       H  8.33794e+00  8.83492e+00  9.58877e+00
       H  8.95451e+00  7.45198e+00  9.10557e+00
       H  6.69620e+00  9.93669e+00  1.07742e+01
       H  7.85074e+00  1.07853e+01  1.01207e+01
       H  9.92466e+00  1.13598e+01  9.53687e+00
       H  9.36742e+00  1.26392e+01  1.03339e+01
       O  1.07865e+01  1.05474e+01  8.43858e+00
       O  1.06332e+01  9.42082e+00  1.16684e+01
       O  1.28275e+01  1.00590e+01  1.01950e+01
       O  9.19613e+00  8.33664e+00  9.42607e+00
       O  7.19353e+00  1.00506e+01  9.94672e+00
       O  9.33668e+00  1.16682e+01  1.03182e+01
18
# CELL(abcABC):   20.00000    20.00000    20.00000    90.00000    90.00000    90.00000  Step:           1  Bead:       0 positions{angstrom}  cell{angstrom}
       H  1.03106e+01  9.68543e+00  8.47568e+00
       H  1.16453e+01  1.03741e+01  8.91328e+00
       H  1.02158e+01  1.02900e+01  1.15355e+01
       H  1.01540e+01  8.83574e+00  1.10151e+01
       H  1.21435e+01  9.73624e+00  1.08641e+01
       H  1.35384e+01  9.39929e+00  1.01607e+01
       H  8.35385e+00  8.83594e+00  9.59188e+00
       H  8.97101e+00  7.46034e+00  9.09656e+00
       H  6.70435e+00  9.93021e+00  1.07806e+01
       H  7.84464e+00  1.07763e+01  1.01267e+01
       H  9.93543e+00  1.13560e+01  9.53350e+00
       H  9.37348e+00  1.26239e+01  1.03387e+01
       O  1.07859e+01  1.05441e+01  8.43598e+00
       O  1.06336e+01  9.42242e+00  1.16639e+01
       O  1.28278e+01  1.00585e+01  1.01939e+01
       O  9.19754e+00  8.33597e+00  9.42594e+00
       O  7.19077e+00  1.00516e+01  9.94402e+00
       O  9.33729e+00  1.16673e+01  1.03150e+01
18
# CELL(abcABC):   20.00000    20.00000    20.00000    90.00000    90.00000    90.00000  Step:           2  Bead:       0 positions{angstrom}  cell{angstrom}
       H  1.03075e+01  9.68601e+00  8.46615e+00
       H  1.16409e+01  1.03762e+01  8.91932e+00
       H  1.02249e+01  1.02848e+01  1.15397e+01
       H  1.01444e+01  8.82898e+00  1.10104e+01
       H  1.21409e+01  9.73474e+00  1.08710e+01
       H  1.35452e+01  9.40792e+00  1.01527e+01
       H  8.36888e+00  8.83725e+00  9.59502e+00
       H  8.98712e+00  7.46781e+00  9.08724e+00
       H  6.71258e+00  9.92371e+00  1.07867e+01
       H  7.83903e+00  1.07679e+01  1.01326e+01
       H  9.94584e+00  1.13523e+01  9.53044e+00
       H  9.37961e+00  1.26103e+01  1.03436e+01
       O  1.07854e+01  1.05409e+01  8.43339e+00
       O  1.06340e+01  9.42390e+00  1.16593e+01
       O  1.28280e+01  1.00580e+01  1.01927e+01
       O  9.19903e+00  8.33534e+00  9.42583e+00
       O  7.18797e+00  1.00526e+01  9.94134e+00
       O  9.33793e+00  1.16663e+01  1.03118e+01
18
# CELL(abcABC):   20.00000    20.00000    20.00000    90.00000    90.00000    90.00000  Step:           3  Bead:       0 positions{angstrom}  cell{angstrom}
       H  1.03043e+01  9.68618e+00  8.45677e+00
       H  1.16365e+01  1.03780e+01  8.92530e+00
       H  1.02327e+01  1.02820e+01  1.15435e+01
       H  1.01358e+01  8.82356e+00  1.10068e+01
       H  1.21393e+01  9.73341e+00  1.08771e+01
       H  1.35521e+01  9.41627e+00  1.01449e+01
       H  8.38213e+00  8.83912e+00  9.59823e+00
       H  9.00248e+00  7.47361e+00  9.07730e+00
       H  6.72098e+00  9.91714e+00  1.07921e+01
       H  7.83440e+00  1.07605e+01  1.01385e+01
       H  9.95555e+00  1.13489e+01  9.52798e+00
       H  9.38586e+00  1.26001e+01  1.03486e+01
       O  1.07848e+01  1.05377e+01  8.43079e+00
       O  1.06344e+01  9.42516e+00  1.16547e+01
       O  1.28282e+01  1.00576e+01  1.01917e+01
       O  9.20067e+00  8.33477e+00  9.42575e+00
       O  7.18510e+00  1.00536e+01  9.93871e+00
       O  9.33860e+00  1.16650e+01  1.03086e+01
18
# CELL(abcABC):   20.00000    20.00000    20.00000    90.00000    90.00000    90.00000  Step:           4  Bead:       0 positions{angstrom}  cell{angstrom}
       H  1.03010e+01  9.68577e+00  8.44761e+00
       H  1.16323e+01  1.03795e+01  8.93120e+00
       H  1.02387e+01  1.02822e+01  1.15467e+01
       H  1.01285e+01  8.81996e+00  1.10047e+01
       H  1.21390e+01  9.73229e+00  1.08819e+01
       H  1.35589e+01  9.42426e+00  1.01372e+01
       H  8.39286e+00  8.84179e+00  9.60151e+00
       H  9.01682e+00  7.47719e+00  9.06650e+00
       H  6.72956e+00  9.91049e+00  1.07966e+01
       H  7.83115e+00  1.07548e+01  1.01444e+01
       H  9.96429e+00  1.13457e+01  9.52630e+00
       H  9.39233e+00  1.25945e+01  1.03538e+01
       O  1.07842e+01  1.05345e+01  8.42819e+00
       O  1.06349e+01  9.42610e+00  1.16500e+01
       O  1.28283e+01  1.00571e+01  1.01906e+01
       O  9.20253e+00  8.33429e+00  9.42572e+00
       O  7.18213e+00  1.00544e+01  9.93614e+00
       O  9.33930e+00  1.16635e+01  1.03052e+01
18
# CELL(abcABC):   20.00000    20.00000    20.00000    90.00000    90.00000    90.00000  Step:           5  Bead:       0 positions{angstrom}  cell{angstrom}
       H  1.02976e+01  9.68468e+00  8.43875e+00
       H  1.16281e+01  1.03805e+01  8.93696e+00
       H  1.02427e+01  1.02860e+01  1.15491e+01
       H  1.01228e+01  8.81849e+00  1.10043e+01
       H  1.21402e+01  9.73139e+00  1.08852e+01
       H  1.35658e+01  9.43185e+00  1.01299e+01
       H  8.40052e+00  8.84538e+00  9.60487e+00
       H  9.02995e+00  7.47837e+00  9.05475e+00
       H  6.73830e+00  9.90372e+00  1.08000e+01
       H  7.82955e+00  1.07509e+01  1.01501e+01
       H  9.97183e+00  1.13430e+01  9.52553e+00
       H  9.39906e+00  1.25940e+01  1.03592e+01
       O  1.07837e+01  1.05315e+01  8.42559e+00
       O  1.06354e+01  9.42668e+00  1.16453e+01
       O  1.28282e+01  1.00567e+01  1.01897e+01
       O  9.20463e+00  8.33389e+00  9.42574e+00
       O  7.17906e+00  1.00551e+01  9.93365e+00
       O  9.34006e+00  1.16616e+01  1.03018e+01
18
# CELL(abcABC):   20.00000    20.00000    20.00000    90.00000    90.00000    90.00000  Step:           6  Bead:       0 positions{angstrom}  cell{angstrom}
       H  1.02942e+01  9.68288e+00  8.43024e+00
       H  1.16241e+01  1.03809e+01  8.94251e+00
       H  1.02447e+01  1.02933e+01  1.15508e+01
       H  1.01187e+01  8.81930e+00  1.10057e+01
       H  1.21431e+01  9.73068e+00  1.08870e+01
       H  1.35726e+01  9.43905e+00  1.01228e+01
       H  8.40484e+00  8.84986e+00  9.60822e+00
       H  9.04178e+00  7.47736e+00  9.04211e+00
       H  6.74715e+00  9.89677e+00  1.08022e+01
       H  7.82967e+00  1.07489e+01  1.01556e+01
       H  9.97802e+00  1.13407e+01  9.52569e+00
       H  9.40607e+00  1.25982e+01  1.03648e+01
       O  1.07832e+01  1.05285e+01  8.42300e+00
       O  1.06359e+01  9.42691e+00  1.16405e+01
       O  1.28281e+01  1.00562e+01  1.01888e+01
       O  9.20701e+00  8.33356e+00  9.42581e+00
       O  7.17588e+00  1.00558e+01  9.93125e+00
       O  9.34088e+00  1.16593e+01  1.02984e+01
18
# CELL(abcABC):   20.00000    20.00000    20.00000    90.00000    90.00000    90.00000  Step:           7  Bead:       0 positions{angstrom}  cell{angstrom}
       H  1.02908e+01  9.68040e+00  8.42217e+00
       H  1.16200e+01  1.03806e+01  8.94779e+00
       H  1.02450e+01  1.03033e+01  1.15518e+01
       H  1.01162e+01  8.82236e+00  1.10086e+01
       H  1.21476e+01  9.73008e+00  1.08871e+01
       H  1.35791e+01  9.44589e+00  1.01161e+01
       H  8.40589e+00  8.85502e+00  9.61144e+00
       H  9.05230e+00  7.47472e+00  9.02880e+00
       H  6.75598e+00  9.88959e+00  1.08033e+01
       H  7.83140e+00  1.07487e+01  1.01607e+01
       H  9.98280e+00  1.13389e+01  9.52675e+00
       H  9.41334e+00  1.26061e+01  1.03705e+01
       O  1.07827e+01  1.05256e+01  8.42040e+00
       O  1.06365e+01  9.42682e+00  1.16356e+01
       O  1.28278e+01  1.00558e+01  1.01880e+01
       O  9.20966e+00  8.33328e+00  9.42592e+00
       O  7.17261e+00  1.00563e+01  9.92896e+00
       O  9.34175e+00  1.16568e+01  1.02948e+01
18
# CELL(abcABC):   20.00000    20.00000    20.00000    90.00000    90.00000    90.00000  Step:           8  Bead:       0 positions{angstrom}  cell{angstrom}
       H  1.02875e+01  9.67733e+00  8.41458e+00
       H  1.16160e+01  1.03796e+01  8.95270e+00
       H  1.02439e+01  1.03150e+01  1.15522e+01
       H  1.01151e+01  8.82746e+00  1.10129e+01
       H  1.21537e+01  9.72949e+00  1.08857e+01
       H  1.35852e+01  9.45244e+00  1.01098e+01
       H  8.40400e+00  8.86048e+00  9.61433e+00
       H  9.06152e+00  7.47123e+00  9.01516e+00
       H  6.76467e+00  9.88213e+00  1.08033e+01
       H  7.83448e+00  1.07500e+01  1.01653e+01
       H  9.98615e+00  1.13375e+01  9.52857e+00
       H  9.42076e+00  1.26160e+01  1.03763e+01
       O  1.07823e+01  1.05228e+01  8.41782e+00
       O  1.06371e+01  9.42650e+00  1.16308e+01
       O  1.28275e+01  1.00554e+01  1.01873e+01
       O  9.21255e+00  8.33303e+00  9.42606e+00
       O  7.16928e+00  1.00568e+01  9.92677e+00
       O  9.34269e+00  1.16542e+01  1.02913e+01
18
# CELL(abcABC):   20.00000    20.00000    20.00000    90.00000    90.00000    90.00000  Step:           9  Bead:       0 positions{angstrom}  cell{angstrom}
       H  1.02845e+01  9.67383e+00  8.40755e+00
       H  1.16119e+01  1.03777e+01  8.95716e+00
       H  1.02420e+01  1.03273e+01  1.15520e+01
       H  1.01151e+01  8.83423e+00  1.10180e+01
       H  1.21613e+01  9.72877e+00  1.08830e+01
       H  1.35908e+01  9.45877e+00  1.01040e+01
       H  8.39973e+00  8.86577e+00  9.61666e+00
       H  9.06950e+00  7.46778e+00  9.00160e+00
       H  6.77306e+00  9.87432e+00  1.08023e+01
       H  7.83848e+00  1.07525e+01  1.01690e+01
       H  9.98816e+00  1.13365e+01  9.53097e+00
       H  9.42823e+00  1.26262e+01  1.03819e+01
       O  1.07818e+01  1.05201e+01  8.41524e+00
       O  1.06377e+01  9.42604e+00  1.16258e+01
       O  1.28270e+01  1.00550e+01  1.01866e+01
       O  9.21563e+00  8.33278e+00  9.42622e+00
       O  7.16593e+00  1.00572e+01  9.92469e+00
       O  9.34370e+00  1.16515e+01  1.02876e+01
18
# CELL(abcABC):   20.00000    20.00000    20.00000    90.00000    90.00000    90.00000  Step:          10  Bead:       0 positions{angstrom}  cell{angstrom}
       H  1.02818e+01  9.67006e+00  8.40114e+00
       H  1.16077e+01  1.03750e+01  8.96111e+00
       H  1.02399e+01  1.03387e+01  1.15512e+01
       H  1.01157e+01  8.84213e+00  1.10234e+01
       H  1.21699e+01  9.72775e+00  1.08792e+01
       H  1.35958e+01  9.46494e+00  1.00987e+01
       H  8.39375e+00  8.87037e+00  9.61819e+00
       H  9.07630e+00  7.46522e+00  8.98853e+00
       H  6.78099e+00  9.86610e+00  1.08008e+01
       H  7.84295e+00  1.07556e+01  1.01717e+01
       H  9.98895e+00  1.13358e+01  9.53369e+00
       H  9.43562e+00  1.26351e+01  1.03872e+01
       O  1.07814e+01  1.05174e+01  8.41267e+00
       O  1.06383e+01  9.42556e+00  1.16210e+01
       O  1.28266e+01  1.00546e+01  1.01860e+01
       O  9.21885e+00  8.33251e+00  9.42638e+00
       O  7.16259e+00  1.00576e+01  9.92272e+00
       O  9.34476e+00  1.16489e+01  1.02840e+01
18
# CELL(abcABC):   20.00000    20.00000    20.00000    90.00000    90.00000    90.00000  Step:          11  Bead:       0 positions{angstrom}  cell{angstrom}
       H  1.02796e+01  9.66622e+00  8.39539e+00
       H  1.16034e+01  1.03715e+01  8.96445e+00
       H  1.02378e+01  1.03483e+01  1.15500e+01
       H  1.01163e+01  8.85050e+00  1.10283e+01
       H  1.21793e+01  9.72623e+00  1.08748e+01
       H  1.36001e+01  9.47102e+00  1.00940e+01
       H  8.38680e+00  8.87378e+00  9.61868e+00
       H  9.08198e+00  7.46427e+00  8.97634e+00
       H  6.78830e+00  9.85741e+00  1.07988e+01
       H  7.84739e+00  1.07588e+01  1.01732e+01
       H  9.98872e+00  1.13355e+01  9.53646e+00
       H  9.44281e+00  1.26413e+01  1.03920e+01
       O  1.07810e+01  1.05149e+01  8.41011e+00
       O  1.06388e+01  9.42517e+00  1.16161e+01
       O  1.28261e+01  1.00543e+01  1.01853e+01
       O  9.22217e+00  8.33221e+00  9.42653e+00
       O  7.15933e+00  1.00580e+01  9.92085e+00
       O  9.34587e+00  1.16464e+01  1.02804e+01
18
# CELL(abcABC):   20.00000    20.00000    20.00000    90.00000    90.00000    90.00000  Step:          12  Bead:       0 positions{angstrom}  cell{angstrom}
       H  1.02779e+01  9.66249e+00  8.39036e+00
       H  1.15990e+01  1.03670e+01  8.96715e+00
       H  1.02363e+01  1.03552e+01  1.15483e+01
       H  1.01163e+01  8.85861e+00  1.10322e+01
       H  1.21890e+01  9.72399e+00  1.08703e+01
       H  1.36036e+01  9.47701e+00  1.00898e+01
       H  8.37955e+00  8.87556e+00  9.61796e+00
       H  9.08660e+00  7.46544e+00  8.96530e+00
       H  6.79488e+00  9.84822e+00  1.07968e+01
       H  7.85136e+00  1.07618e+01  1.01732e+01
       H  9.98770e+00  1.13353e+01  9.53894e+00
       H  9.44970e+00  1.26440e+01  1.03961e+01
       O  1.07806e+01  1.05123e+01  8.40756e+00
       O  1.06394e+01  9.42497e+00  1.16114e+01
       O  1.28256e+01  1.00540e+01  1.01846e+01
       O  9.22554e+00  8.33187e+00  9.42666e+00
       O  7.15616e+00  1.00585e+01  9.91909e+00
       O  9.34703e+00  1.16441e+01  1.02769e+01
18
# CELL(abcABC):   20.00000    20.00000    20.00000    90.00000    90.00000    90.00000  Step:          13  Bead:       0 positions{angstrom}  cell{angstrom}
       H  1.02769e+01  9.65900e+00  8.38606e+00
       H  1.15944e+01  1.03617e+01  8.96915e+00
       H  1.02357e+01  1.03588e+01  1.15462e+01
       H  1.01152e+01  8.86578e+00  1.10343e+01
       H  1.21986e+01  9.72081e+00  1.08661e+01
       H  1.36064e+01  9.48291e+00  1.00861e+01
       H  8.37263e+00  8.87540e+00  9.61585e+00
       H  9.09020e+00  7.46903e+00  8.95561e+00
       H  6.80064e+00  9.83848e+00  1.07948e+01
       H  7.85449e+00  1.07641e+01  1.01717e+01
       H  9.98614e+00  1.13352e+01  9.54083e+00
       H  9.45619e+00  1.26426e+01  1.03995e+01
       O  1.07803e+01  1.05098e+01  8.40503e+00
       O  1.06401e+01  9.42502e+00  1.16069e+01
       O  1.28252e+01  1.00538e+01  1.01839e+01
       O  9.22890e+00  8.33150e+00  9.42677e+00
       O  7.15313e+00  1.00591e+01  9.91742e+00
       O  9.34821e+00  1.16421e+01  1.02735e+01
18
# CELL(abcABC):   20.00000    20.00000    20.00000    90.00000    90.00000    90.00000  Step:          14  Bead:       0 positions{angstrom}  cell{angstrom}
       H  1.02765e+01  9.65589e+00  8.38252e+00
       H  1.15897e+01  1.03556e+01  8.97044e+00
       H  1.02359e+01  1.03589e+01  1.15437e+01
       H  1.01125e+01  8.87145e+00  1.10341e+01
       H  1.22076e+01  9.71646e+00  1.08627e+01
       H  1.36085e+01  9.48870e+00  1.00829e+01
       H  8.36656e+00  8.87307e+00  9.61226e+00
       H  9.09283e+00  7.47509e+00  8.94733e+00
       H  6.80553e+00  9.82823e+00  1.07930e+01
       H  7.85646e+00  1.07655e+01  1.01686e+01
       H  9.98431e+00  1.13350e+01  9.54179e+00
       H  9.46226e+00  1.26368e+01  1.04021e+01
       O  1.07799e+01  1.05074e+01  8.40250e+00
       O  1.06408e+01  9.42539e+00  1.16025e+01
       O  1.28248e+01  1.00537e+01  1.01830e+01
       O  9.23222e+00  8.33111e+00  9.42685e+00
       O  7.15026e+00  1.00597e+01  9.91584e+00
       O  9.34940e+00  1.16404e+01  1.02701e+01
18
# CELL(abcABC):   20.00000    20.00000    20.00000    90.00000    90.00000    90.00000  Step:          15  Bead:       0 positions{angstrom}  cell{angstrom}
       H  1.02768e+01  9.65323e+00  8.37972e+00
       H  1.15850e+01  1.03487e+01  8.97104e+00
       H  1.02372e+01  1.03554e+01  1.15408e+01
       H  1.01079e+01  8.87529e+00  1.10313e+01
       H  1.22156e+01  9.71080e+00  1.08606e+01
       H  1.36100e+01  9.49428e+00  1.00803e+01
       H  8.36176e+00  8.86848e+00  9.60716e+00
       H  9.09451e+00  7.48342e+00  8.94040e+00
       H  6.80958e+00  9.81749e+00  1.07916e+01
       H  7.85708e+00  1.07658e+01  1.01639e+01
       H  9.98245e+00  1.13346e+01  9.54157e+00
       H  9.46787e+00  1.26270e+01  1.04038e+01
       O  1.07795e+01  1.05050e+01  8.39997e+00
       O  1.06415e+01  9.42610e+00  1.15983e+01
       O  1.28245e+01  1.00537e+01  1.01820e+01
       O  9.23547e+00  8.33073e+00  9.42693e+00
       O  7.14756e+00  1.00604e+01  9.91434e+00
       O  9.35059e+00  1.16389e+01  1.02669e+01
18
# CELL(abcABC):   20.00000    20.00000    20.00000    90.00000    90.00000    90.00000  Step:          16  Bead:       0 positions{angstrom}  cell{angstrom}
       H  1.02777e+01  9.65102e+00  8.37765e+00
       H  1.15804e+01  1.03411e+01  8.97097e+00
       H  1.02395e+01  1.03488e+01  1.15376e+01
       H  1.01015e+01  8.87728e+00  1.10261e+01
       H  1.22224e+01  9.70373e+00  1.08600e+01
       H  1.36112e+01  9.49958e+00  1.00780e+01
       H  8.35854e+00  8.86162e+00  9.60055e+00
       H  9.09528e+00  7.49361e+00  8.93463e+00
       H  6.81284e+00  9.80634e+00  1.07904e+01
       H  7.85625e+00  1.07649e+01  1.01576e+01
       H  9.98073e+00  1.13340e+01  9.53995e+00
       H  9.47308e+00  1.26137e+01  1.04048e+01
       O  1.07792e+01  1.05026e+01  8.39745e+00
       O  1.06424e+01  9.42711e+00  1.15943e+01
       O  1.28244e+01  1.00538e+01  1.01810e+01
       O  9.23862e+00  8.33037e+00  9.42699e+00
       O  7.14504e+00  1.00612e+01  9.91293e+00
       O  9.35176e+00  1.16377e+01  1.02639e+01
18
# CELL(abcABC):   20.00000    20.00000    20.00000    90.00000    90.00000    90.00000  Step:          17  Bead:       0 positions{angstrom}  cell{angstrom}
       H  1.02791e+01  9.64923e+00  8.37626e+00
       H  1.15760e+01  1.03329e+01  8.97028e+00
       H  1.02424e+01  1.03395e+01  1.15340e+01
       H  1.00936e+01  8.87766e+00  1.10187e+01
       H  1.22278e+01  9.69527e+00  1.08609e+01
       H  1.36122e+01  9.50449e+00  1.00761e+01
       H  8.35706e+00  8.85264e+00  9.59248e+00
       H  9.09517e+00  7.50505e+00  8.92970e+00
       H  6.81543e+00  9.79492e+00  1.07894e+01
       H  7.85396e+00  1.07628e+01  1.01500e+01
       H  9.97930e+00  1.13330e+01  9.53681e+00
       H  9.47797e+00  1.25981e+01  1.04053e+01
       O  1.07788e+01  1.05002e+01  8.39493e+00
       O  1.06433e+01  9.42838e+00  1.15906e+01
       O  1.28243e+01  1.00540e+01  1.01797e+01
       O  9.24167e+00  8.33007e+00  9.42706e+00
       O  7.14269e+00  1.00622e+01  9.91160e+00
       O  9.35289e+00  1.16366e+01  1.02610e+01
18
# CELL(abcABC):   20.00000    20.00000    20.00000    90.00000    90.00000    90.00000  Step:          18  Bead:       0 positions{angstrom}  cell{angstrom}
       H  1.02809e+01  9.64779e+00  8.37550e+00
       H  1.15718e+01  1.03241e+01  8.96905e+00
       H  1.02458e+01  1.03287e+01  1.15301e+01
       H  1.00849e+01  8.87692e+00  1.10097e+01
       H  1.22318e+01  9.68555e+00  1.08634e+01
       H  1.36133e+01  9.50891e+00  1.00745e+01
       H  8.35739e+00  8.84174e+00  9.58309e+00
       H  9.09418e+00  7.51698e+00  8.92523e+00
       H  6.81749e+00  9.78337e+00  1.07883e+01
       H  7.85032e+00  1.07596e+01  1.01411e+01
       H  9.97819e+00  1.13315e+01  9.53212e+00
       H  9.48267e+00  1.25814e+01  1.04053e+01
       O  1.07785e+01  1.04978e+01  8.39241e+00
       O  1.06442e+01  9.42980e+00  1.15869e+01
       O  1.28243e+01  1.00543e+01  1.01784e+01
       O  9.24461e+00  8.32986e+00  9.42716e+00
       O  7.14049e+00  1.00631e+01  9.91036e+00
       O  9.35397e+00  1.16357e+01  1.02582e+01
18
# CELL(abcABC):   20.00000    20.00000    20.00000    90.00000    90.00000    90.00000  Step:          19  Bead:       0 positions{angstrom}  cell{angstrom}
       H  1.02828e+01  9.64658e+00  8.37530e+00
       H  1.15682e+01  1.03149e+01  8.96734e+00
       H  1.02491e+01  1.03173e+01  1.15259e+01
       H  1.00760e+01  8.87562e+00  1.09998e+01
       H  1.22347e+01  9.67480e+00  1.08669e+01
       H  1.36147e+01  9.51276e+00  1.00731e+01
       H  8.35943e+00  8.82926e+00  9.57253e+00
       H  9.09237e+00  7.52858e+00  8.92076e+00
       H  6.81918e+00  9.77186e+00  1.07870e+01
       H  7.84554e+00  1.07557e+01  1.01312e+01
       H  9.97738e+00  1.13297e+01  9.52597e+00
       H  9.48738e+00  1.25654e+01  1.04052e+01
       O  1.07781e+01  1.04955e+01  8.38988e+00
       O  1.06452e+01  9.43128e+00  1.15834e+01
       O  1.28243e+01  1.00547e+01  1.01770e+01
       O  9.24744e+00  8.32978e+00  9.42731e+00
       O  7.13842e+00  1.00641e+01  9.90920e+00
       O  9.35500e+00  1.16347e+01  1.02555e+01
18
# CELL(abcABC):   20.00000    20.00000    20.00000    90.00000    90.00000    90.00000  Step:          20  Bead:       0 positions{angstrom}  cell{angstrom}
       H  1.02848e+01  9.64544e+00  8.37558e+00
       H  1.15651e+01  1.03053e+01  8.96522e+00
       H  1.02520e+01  1.03069e+01  1.15213e+01
       H  1.00677e+01  8.87435e+00  1.09898e+01
       H  1.22368e+01  9.66338e+00  1.08712e+01
       H  1.36164e+01  9.51600e+00  1.00719e+01
       H  8.36296e+00  8.81562e+00  9.56101e+00
       H  9.08978e+00  7.53906e+00  8.91582e+00
       H  6.82066e+00  9.76059e+00  1.07851e+01
       H  7.83995e+00  1.07512e+01  1.01206e+01
       H  9.97676e+00  1.13275e+01  9.51852e+00
       H  9.49233e+00  1.25518e+01  1.04053e+01
       O  1.07778e+01  1.04932e+01  8.38735e+00
       O  1.06461e+01  9.43268e+00  1.15799e+01
       O  1.28244e+01  1.00552e+01  1.01755e+01
       O  9.25017e+00  8.32985e+00  9.42752e+00
       O  7.13644e+00  1.00651e+01  9.90812e+00
       O  9.35595e+00  1.16336e+01  1.02529e+01
18
# CELL(abcABC):   20.00000    20.00000    20.00000    90.00000    90.00000    90.00000  Step:          21  Bead:       0 positions{angstrom}  cell{angstrom}
       H  1.02867e+01  9.64421e+00  8.37625e+00
       H  1.15627e+01  1.02955e+01  8.96277e+00
       H  1.02538e+01  1.02986e+01  1.15164e+01
       H  1.00607e+01  8.87362e+00  1.09802e+01
       H  1.22384e+01  9.65165e+00  1.08756e+01
       H  1.36187e+01  9.51863e+00  1.00708e+01
       H  8.36759e+00  8.80132e+00  9.54877e+00
       H  9.08651e+00  7.54776e+00  8.91005e+00
       H  6.82209e+00  9.74975e+00  1.07826e+01
       H  7.83394e+00  1.07467e+01  1.01096e+01
       H  9.97619e+00  1.13251e+01  9.50999e+00
       H  9.49775e+00  1.25422e+01  1.04059e+01
       O  1.07775e+01  1.04909e+01  8.38482e+00
       O  1.06471e+01  9.43388e+00  1.15764e+01
       O  1.28244e+01  1.00558e+01  1.01739e+01
       O  9.25282e+00  8.33007e+00  9.42780e+00
       O  7.13452e+00  1.00661e+01  9.90712e+00
       O  9.35684e+00  1.16323e+01  1.02503e+01
18
# CELL(abcABC):   20.00000    20.00000    20.00000    90.00000    90.00000    90.00000  Step:          22  Bead:       0 positions{angstrom}  cell{angstrom}
       H  1.02881e+01  9.64276e+00  8.37723e+00
       H  1.15611e+01  1.02857e+01  8.96002e+00
       H  1.02543e+01  1.02937e+01  1.15110e+01
       H  1.00555e+01  8.87384e+00  1.09716e+01
       H  1.22399e+01  9.64002e+00  1.08795e+01
       H  1.36215e+01  9.52071e+00  1.00698e+01
       H  8.37277e+00  8.78696e+00  9.53607e+00
       H  9.08272e+00  7.55427e+00  8.90320e+00
       H  6.82360e+00  9.73950e+00  1.07792e+01
       H  7.82798e+00  1.07425e+01  1.00985e+01
       H  9.97549e+00  1.13224e+01  9.50066e+00
       H  9.50382e+00  1.25375e+01  1.04071e+01
       O  1.07772e+01  1.04887e+01  8.38228e+00
       O  1.06481e+01  9.43480e+00  1.15730e+01
       O  1.28244e+01  1.00564e+01  1.01724e+01
       O  9.25543e+00  8.33043e+00  9.42815e+00
       O  7.13260e+00  1.00670e+01  9.90619e+00
       O  9.35766e+00  1.16307e+01  1.02478e+01
18
# CELL(abcABC):   20.00000    20.00000    20.00000    90.00000    90.00000    90.00000  Step:          23  Bead:       0 positions{angstrom}  cell{angstrom}
       H  1.02891e+01  9.64096e+00  8.37845e+00
       H  1.15603e+01  1.02759e+01  8.95701e+00
       H  1.02530e+01  1.02928e+01  1.15052e+01
       H  1.00525e+01  8.87527e+00  1.09644e+01
       H  1.22416e+01  9.62887e+00  1.08825e+01
       H  1.36247e+01  9.52235e+00  1.00687e+01
       H  8.37785e+00  8.77316e+00  9.52321e+00
       H  9.07861e+00  7.55847e+00  8.89524e+00
       H  6.82530e+00  9.72999e+00  1.07750e+01
       H  7.82256e+00  1.07392e+01  1.00875e+01
       H  9.97452e+00  1.13196e+01  9.49082e+00
       H  9.51061e+00  1.25380e+01  1.04090e+01
       O  1.07769e+01  1.04864e+01  8.37974e+00
       O  1.06491e+01  9.43536e+00  1.15695e+01
       O  1.28244e+01  1.00570e+01  1.01710e+01
       O  9.25801e+00  8.33091e+00  9.42856e+00
       O  7.13066e+00  1.00678e+01  9.90530e+00
       O  9.35841e+00  1.16289e+01  1.02452e+01
18
# CELL(abcABC):   20.00000    20.00000    20.00000    90.00000    90.00000    90.00000  Step:          24  Bead:       0 positions{angstrom}  cell{angstrom}
       H  1.02894e+01  9.63874e+00  8.37983e+00
       H  1.15603e+01  1.02663e+01  8.95373e+00
       H  1.02501e+01  1.02960e+01  1.14990e+01
       H  1.00520e+01  8.87803e+00  1.09588e+01
       H  1.22436e+01  9.61857e+00  1.08842e+01
       H  1.36281e+01  9.52369e+00  1.00678e+01
       H  8.38211e+00  8.76053e+00  9.51043e+00
       H  9.07449e+00  7.56053e+00  8.88632e+00
       H  6.82725e+00  9.72132e+00  1.07700e+01
       H  7.81812e+00  1.07371e+01  1.00771e+01
       H  9.97311e+00  1.13169e+01  9.48075e+00
       H  9.51806e+00  1.25431e+01  1.04116e+01
       O  1.07767e+01  1.04843e+01  8.37720e+00
       O  1.06501e+01  9.43555e+00  1.15659e+01
       O  1.28243e+01  1.00576e+01  1.01695e+01
       O  9.26059e+00  8.33143e+00  9.42899e+00
       O  7.12865e+00  1.00684e+01  9.90445e+00
       O  9.35912e+00  1.16267e+01  1.02426e+01
18
# CELL(abcABC):   20.00000    20.00000    20.00000    90.00000    90.00000    90.00000  Step:          25  Bead:       0 positions{angstrom}  cell{angstrom}
       H  1.02890e+01  9.63609e+00  8.38130e+00
       H  1.15612e+01  1.02570e+01  8.95015e+00
       H  1.02458e+01  1.03029e+01  1.14923e+01
       H  1.00539e+01  8.88211e+00  1.09549e+01
       H  1.22462e+01  9.60940e+00  1.08843e+01
       H  1.36316e+01  9.52492e+00  1.00668e+01
       H  8.38490e+00  8.74964e+00  9.49798e+00
       H  9.07066e+00  7.56090e+00  8.87679e+00
       H  6.82950e+00  9.71352e+00  1.07644e+01
       H  7.81499e+00  1.07367e+01  1.00673e+01
       H  9.97118e+00  1.13144e+01  9.47070e+00
       H  9.52598e+00  1.25514e+01  1.04145e+01
       O  1.07765e+01  1.04821e+01  8.37467e+00
       O  1.06510e+01  9.43541e+00  1.15624e+01
       O  1.28242e+01  1.00582e+01  1.01682e+01
       O  9.26320e+00  8.33196e+00  9.42941e+00
       O  7.12655e+00  1.00689e+01  9.90360e+00
       O  9.35980e+00  1.16243e+01  1.02400e+01
18
# CELL(abcABC):   20.00000    20.00000    20.00000    90.00000    90.00000    90.00000  Step:          26  Bead:       0 positions{angstrom}  cell{angstrom}
       H  1.02878e+01  9.63306e+00  8.38283e+00
       H  1.15627e+01  1.02483e+01  8.94625e+00
       H  1.02407e+01  1.03124e+01  1.14854e+01
       H  1.00583e+01  8.88734e+00  1.09526e+01
       H  1.22495e+01  9.60158e+00  1.08826e+01
       H  1.36350e+01  9.52622e+00  1.00658e+01
       H  8.38570e+00  8.74094e+00  9.48606e+00
       H  9.06749e+00  7.56013e+00  8.86710e+00
       H  6.83202e+00  9.70659e+00  1.07584e+01
       H  7.81335e+00  1.07380e+01  1.00584e+01
       H  9.96865e+00  1.13121e+01  9.46089e+00
       H  9.53414e+00  1.25614e+01  1.04174e+01
       O  1.07764e+01  1.04800e+01  8.37215e+00
       O  1.06518e+01  9.43500e+00  1.15588e+01
       O  1.28240e+01  1.00586e+01  1.01670e+01
       O  9.26585e+00  8.33240e+00  9.42978e+00
       O  7.12435e+00  1.00692e+01  9.90273e+00
       O  9.36048e+00  1.16218e+01  1.02373e+01
18
# CELL(abcABC):   20.00000    20.00000    20.00000    90.00000    90.00000    90.00000  Step:          27  Bead:       0 positions{angstrom}  cell{angstrom}
       H  1.02858e+01  9.62978e+00  8.38437e+00
       H  1.15648e+01  1.02401e+01  8.94196e+00
       H  1.02353e+01  1.03233e+01  1.14781e+01
       H  1.00647e+01  8.89344e+00  1.09516e+01
       H  1.22533e+01  9.59524e+00  1.08789e+01
       H  1.36380e+01  9.52774e+00  1.00647e+01
       H  8.38424e+00  8.73473e+00  9.47483e+00
       H  9.06531e+00  7.55885e+00  8.85773e+00
       H  6.83478e+00  9.70049e+00  1.07524e+01
       H  7.81319e+00  1.07410e+01  1.00505e+01
       H  9.96551e+00  1.13101e+01  9.45147e+00
       H  9.54222e+00  1.25713e+01  1.04201e+01
       O  1.07763e+01  1.04778e+01  8.36966e+00
       O  1.06526e+01  9.43441e+00  1.15551e+01
       O  1.28238e+01  1.00590e+01  1.01659e+01
       O  9.26853e+00  8.33272e+00  9.43006e+00
       O  7.12205e+00  1.00693e+01  9.90180e+00
       O  9.36119e+00  1.16194e+01  1.02347e+01
18
# CELL(abcABC):   20.00000    20.00000    20.00000    90.00000    90.00000    90.00000  Step:          28  Bead:       0 positions{angstrom}  cell{angstrom}
       H  1.02831e+01  9.62641e+00  8.38590e+00
       H  1.15674e+01  1.02327e+01  8.93723e+00
       H  1.02302e+01  1.03344e+01  1.14707e+01
       H  1.00728e+01  8.89998e+00  1.09516e+01
       H  1.22577e+01  9.59043e+00  1.08735e+01
       H  1.36405e+01  9.52964e+00  1.00637e+01
       H  8.38060e+00  8.73110e+00  9.46440e+00
       H  9.06440e+00  7.55764e+00  8.84917e+00
       H  6.83774e+00  9.69512e+00  1.07467e+01
       H  7.81430e+00  1.07454e+01  1.00436e+01
       H  9.96178e+00  1.13085e+01  9.44259e+00
       H  9.54997e+00  1.25795e+01  1.04220e+01
       O  1.07763e+01  1.04757e+01  8.36719e+00
       O  1.06533e+01  9.43377e+00  1.15515e+01
       O  1.28236e+01  1.00593e+01  1.01648e+01
       O  9.27123e+00  8.33286e+00  9.43020e+00
       O  7.11966e+00  1.00693e+01  9.90080e+00
       O  9.36193e+00  1.16170e+01  1.02321e+01
18
# CELL(abcABC):   20.00000    20.00000    20.00000    90.00000    90.00000    90.00000  Step:          29  Bead:       0 positions{angstrom}  cell{angstrom}
       H  1.02799e+01  9.62314e+00  8.38741e+00
       H  1.15704e+01  1.02262e+01  8.93199e+00
       H  1.02260e+01  1.03445e+01  1.14632e+01