  18  18   1   0
  0.4444444E+03  0.2000000E-08  0.2000000E-08  0.2000000E-08  0.5000000E-15
  1.000000000000000E-004
  CAR 
 VaspCalc                                
      1.86041017    -27.00056499  301     -6.41006302      1.00000000
    -27.001  0.0000E+00  0.0000E+00
    -26.904  0.0000E+00  0.0000E+00
    -26.808  0.0000E+00  0.0000E+00
    -26.712  0.0000E+00  0.0000E+00
    -26.616  0.0000E+00  0.0000E+00
    -26.520  0.0000E+00  0.0000E+00
    -26.423  0.0000E+00  0.0000E+00
    -26.327  0.0000E+00  0.0000E+00
    -26.231  0.1812E-14  0.1743E-15
    -26.135  0.2941E-10  0.2829E-11
    -26.039  0.7817E-07  0.7523E-08
    -25.942  0.3472E-04  0.3347E-05
    -25.846  0.2667E-02  0.2599E-03
    -25.750  0.3748E-01  0.3866E-02
    -25.654  0.1032E+00  0.1379E-01
    -25.558  0.5806E-01  0.1938E-01
    -25.461  0.1325E-01  0.2065E-01
    -25.365  0.6405E-01  0.2681E-01
    -25.269  0.1549E+00  0.4172E-01
    -25.173  0.1421E+00  0.5539E-01
    -25.076  0.6660E-01  0.6180E-01
    -24.980  0.9580E-01  0.7101E-01
    -24.884  0.1007E+00  0.8070E-01
    -24.788  0.1049E+00  0.9079E-01
    -24.692  0.8204E-01  0.9868E-01
    -24.595  0.3791E-01  0.1023E+00
    -24.499  0.9454E-01  0.1114E+00
    -24.403  0.7630E-01  0.1188E+00
    -24.307  0.1246E-01  0.1200E+00
    -24.211  0.3852E-03  0.1200E+00
    -24.114  0.2114E-05  0.1200E+00
    -24.018  0.1968E-08  0.1200E+00
    -23.922  0.3025E-12  0.1200E+00
    -23.826  0.0000E+00  0.1200E+00
    -23.730  0.0000E+00  0.1200E+00
    -23.633  0.0000E+00  0.1200E+00
    -23.537  0.0000E+00  0.1200E+00
    -23.441  0.0000E+00  0.1200E+00
    -23.345  0.0000E+00  0.1200E+00
    -23.249  0.0000E+00  0.1200E+00
    -23.152  0.0000E+00  0.1200E+00
    -23.056  0.0000E+00  0.1200E+00
    -22.960  0.0000E+00  0.1200E+00
    -22.864  0.0000E+00  0.1200E+00
    -22.768  0.0000E+00  0.1200E+00
    -22.671  0.0000E+00  0.1200E+00
    -22.575  0.0000E+00  0.1200E+00
    -22.479  0.0000E+00  0.1200E+00
    -22.383  0.0000E+00  0.1200E+00
    -22.287  0.0000E+00  0.1200E+00
    -22.190  0.0000E+00  0.1200E+00
    -22.094  0.0000E+00  0.1200E+00
    -21.998  0.0000E+00  0.1200E+00
    -21.902  0.0000E+00  0.1200E+00
    -21.806  0.0000E+00  0.1200E+00
    -21.709  0.0000E+00  0.1200E+00
    -21.613  0.0000E+00  0.1200E+00
    -21.517  0.0000E+00  0.1200E+00
    -21.421  0.0000E+00  0.1200E+00
    -21.325  0.0000E+00  0.1200E+00
    -21.228  0.0000E+00  0.1200E+00
    -21.132  0.0000E+00  0.1200E+00
    -21.036  0.0000E+00  0.1200E+00
    -20.940  0.0000E+00  0.1200E+00
    -20.844  0.0000E+00  0.1200E+00
    -20.747  0.0000E+00  0.1200E+00
    -20.651  0.0000E+00  0.1200E+00
    -20.555  0.0000E+00  0.1200E+00
    -20.459  0.0000E+00  0.1200E+00
    -20.363  0.0000E+00  0.1200E+00
    -20.266  0.0000E+00  0.1200E+00
    -20.170  0.0000E+00  0.1200E+00
    -20.074  0.0000E+00  0.1200E+00
    -19.978  0.0000E+00  0.1200E+00
    -19.882  0.0000E+00  0.1200E+00
    -19.785  0.0000E+00  0.1200E+00
    -19.689  0.0000E+00  0.1200E+00
    -19.593  0.0000E+00  0.1200E+00
    -19.497  0.0000E+00  0.1200E+00
    -19.401  0.0000E+00  0.1200E+00
    -19.304  0.0000E+00  0.1200E+00
    -19.208  0.0000E+00  0.1200E+00
    -19.112  0.0000E+00  0.1200E+00
    -19.016  0.0000E+00  0.1200E+00
    -18.919  0.0000E+00  0.1200E+00
    -18.823  0.0000E+00  0.1200E+00
    -18.727  0.0000E+00  0.1200E+00
    -18.631  0.0000E+00  0.1200E+00
    -18.535  0.0000E+00  0.1200E+00
    -18.438  0.0000E+00  0.1200E+00
    -18.342  0.0000E+00  0.1200E+00
    -18.246  0.0000E+00  0.1200E+00
    -18.150  0.0000E+00  0.1200E+00
    -18.054  0.0000E+00  0.1200E+00
    -17.957  0.0000E+00  0.1200E+00
    -17.861  0.0000E+00  0.1200E+00
    -17.765  0.0000E+00  0.1200E+00
    -17.669  0.0000E+00  0.1200E+00
    -17.573  0.0000E+00  0.1200E+00
    -17.476  0.0000E+00  0.1200E+00
    -17.380  0.0000E+00  0.1200E+00
    -17.284  0.0000E+00  0.1200E+00
    -17.188  0.0000E+00  0.1200E+00
    -17.092  0.0000E+00  0.1200E+00
    -16.995  0.0000E+00  0.1200E+00
    -16.899  0.0000E+00  0.1200E+00
    -16.803  0.0000E+00  0.1200E+00
    -16.707  0.0000E+00  0.1200E+00
    -16.611  0.0000E+00  0.1200E+00
    -16.514  0.0000E+00  0.1200E+00
    -16.418  0.0000E+00  0.1200E+00
    -16.322  0.0000E+00  0.1200E+00
    -16.226  0.0000E+00  0.1200E+00
    -16.130  0.0000E+00  0.1200E+00
    -16.033  0.0000E+00  0.1200E+00
    -15.937  0.0000E+00  0.1200E+00
    -15.841  0.0000E+00  0.1200E+00
    -15.745  0.0000E+00  0.1200E+00
    -15.649  0.0000E+00  0.1200E+00
    -15.552  0.0000E+00  0.1200E+00
    -15.456  0.0000E+00  0.1200E+00
    -15.360  0.0000E+00  0.1200E+00
    -15.264  0.0000E+00  0.1200E+00
    -15.168  0.0000E+00  0.1200E+00
    -15.071  0.0000E+00  0.1200E+00
    -14.975  0.0000E+00  0.1200E+00
    -14.879  0.0000E+00  0.1200E+00
    -14.783  0.0000E+00  0.1200E+00
    -14.687  0.0000E+00  0.1200E+00
    -14.590  0.0000E+00  0.1200E+00
    -14.494  0.0000E+00  0.1200E+00
    -14.398  0.0000E+00  0.1200E+00
    -14.302  0.0000E+00  0.1200E+00
    -14.206  0.2548E-13  0.1200E+00
    -14.109  0.2605E-09  0.1200E+00
    -14.013  0.4379E-06  0.1200E+00
    -13.917  0.1238E-03  0.1200E+00
    -13.821  0.6132E-02  0.1206E+00
    -13.725  0.5651E-01  0.1260E+00
    -13.628  0.1035E+00  0.1360E+00
    -13.532  0.3877E-01  0.1397E+00
    -13.436  0.6639E-02  0.1404E+00
    -13.340  0.4496E-01  0.1447E+00
    -13.244  0.1049E+00  0.1548E+00
    -13.147  0.6103E-01  0.1607E+00
    -13.051  0.9602E-01  0.1699E+00
    -12.955  0.1875E+00  0.1879E+00
    -12.859  0.1086E+00  0.1984E+00
    -12.762  0.1686E-01  0.2000E+00
    -12.666  0.1582E-01  0.2015E+00
    -12.570  0.8966E-01  0.2101E+00
    -12.474  0.1524E+00  0.2248E+00
    -12.378  0.1214E+00  0.2365E+00
    -12.281  0.3429E-01  0.2398E+00
    -12.185  0.2156E-02  0.2400E+00
    -12.089  0.2518E-04  0.2400E+00
    -11.993  0.5086E-07  0.2400E+00
    -11.897  0.1714E-10  0.2400E+00
    -11.800  0.9463E-15  0.2400E+00
    -11.704  0.0000E+00  0.2400E+00
    -11.608  0.0000E+00  0.2400E+00
    -11.512  0.0000E+00  0.2400E+00
    -11.416  0.0000E+00  0.2400E+00
    -11.319  0.0000E+00  0.2400E+00
    -11.223  0.0000E+00  0.2400E+00
    -11.127  0.2331E-14  0.2400E+00
    -11.031  0.3621E-10  0.2400E+00
    -10.935  0.9222E-07  0.2400E+00
    -10.838  0.3927E-04  0.2400E+00
    -10.742  0.2895E-02  0.2403E+00
    -10.646  0.3912E-01  0.2440E+00
    -10.550  0.1037E+00  0.2540E+00
    -10.454  0.5604E-01  0.2594E+00
    -10.357  0.6021E-02  0.2600E+00
    -10.261  0.1204E-03  0.2600E+00
    -10.165  0.4243E-06  0.2600E+00
    -10.069  0.2994E-05  0.2600E+00
     -9.973  0.4931E-03  0.2600E+00
     -9.876  0.1447E-01  0.2614E+00
     -9.780  0.8179E-01  0.2693E+00
     -9.684  0.1146E+00  0.2803E+00
     -9.588  0.1151E+00  0.2914E+00
     -9.492  0.7675E-01  0.2988E+00
     -9.395  0.1244E-01  0.3000E+00
     -9.299  0.8128E-02  0.3008E+00
     -9.203  0.6936E-01  0.3074E+00
     -9.107  0.1622E+00  0.3230E+00
     -9.011  0.1363E+00  0.3362E+00
     -8.914  0.3753E-01  0.3398E+00
     -8.818  0.2409E-02  0.3400E+00
     -8.722  0.6723E-04  0.3400E+00
     -8.626  0.2826E-02  0.3403E+00
     -8.530  0.3863E-01  0.3440E+00
     -8.433  0.1035E+00  0.3540E+00
     -8.337  0.5660E-01  0.3594E+00
     -8.241  0.6153E-02  0.3600E+00
     -8.145  0.1245E-03  0.3600E+00
     -8.049  0.4499E-06  0.3600E+00
     -7.952  0.6631E-05  0.3600E+00
     -7.856  0.8809E-03  0.3601E+00
     -7.760  0.2210E-01  0.3622E+00
     -7.664  0.1239E+00  0.3741E+00
     -7.568  0.2099E+00  0.3943E+00
     -7.471  0.1762E+00  0.4113E+00
     -7.375  0.8060E-01  0.4190E+00
     -7.279  0.3020E-01  0.4219E+00
     -7.183  0.8984E-01  0.4306E+00
     -7.086  0.9553E-01  0.4398E+00
     -6.990  0.1161E+00  0.4509E+00
     -6.894  0.1923E+00  0.4694E+00
     -6.798  0.9726E-01  0.4788E+00
     -6.702  0.1219E-01  0.4800E+00
     -6.605  0.3233E-03  0.4800E+00
     -6.509  0.1591E-05  0.4800E+00
     -6.413  0.1349E-08  0.4800E+00
     -6.317  0.1896E-12  0.4800E+00
     -6.221  0.0000E+00  0.4800E+00
     -6.124  0.0000E+00  0.4800E+00
     -6.028  0.0000E+00  0.4800E+00
     -5.932  0.0000E+00  0.4800E+00
     -5.836  0.0000E+00  0.4800E+00
     -5.740  0.0000E+00  0.4800E+00
     -5.643  0.0000E+00  0.4800E+00
     -5.547  0.0000E+00  0.4800E+00
     -5.451  0.0000E+00  0.4800E+00
     -5.355  0.0000E+00  0.4800E+00
     -5.259  0.0000E+00  0.4800E+00
     -5.162  0.0000E+00  0.4800E+00
     -5.066  0.0000E+00  0.4800E+00
     -4.970  0.0000E+00  0.4800E+00
     -4.874  0.0000E+00  0.4800E+00
     -4.778  0.0000E+00  0.4800E+00
     -4.681  0.0000E+00  0.4800E+00
     -4.585  0.0000E+00  0.4800E+00
     -4.489  0.0000E+00  0.4800E+00
     -4.393  0.0000E+00  0.4800E+00
     -4.297  0.0000E+00  0.4800E+00
     -4.200  0.0000E+00  0.4800E+00
     -4.104  0.0000E+00  0.4800E+00
     -4.008  0.0000E+00  0.4800E+00
     -3.912  0.0000E+00  0.4800E+00
     -3.816  0.0000E+00  0.4800E+00
     -3.719  0.0000E+00  0.4800E+00
     -3.623  0.0000E+00  0.4800E+00
     -3.527  0.0000E+00  0.4800E+00
     -3.431  0.0000E+00  0.4800E+00
     -3.335  0.0000E+00  0.4800E+00
     -3.238  0.0000E+00  0.4800E+00
     -3.142  0.0000E+00  0.4800E+00
     -3.046  0.0000E+00  0.4800E+00
     -2.950  0.0000E+00  0.4800E+00
     -2.854  0.0000E+00  0.4800E+00
     -2.757  0.0000E+00  0.4800E+00
     -2.661  0.0000E+00  0.4800E+00
     -2.565  0.0000E+00  0.4800E+00
     -2.469  0.0000E+00  0.4800E+00
     -2.373  0.0000E+00  0.4800E+00
     -2.276  0.0000E+00  0.4800E+00
     -2.180  0.0000E+00  0.4800E+00
     -2.084  0.0000E+00  0.4800E+00
     -1.988  0.0000E+00  0.4800E+00
     -1.892  0.0000E+00  0.4800E+00
     -1.795  0.8078E-16  0.4800E+00
     -1.699  0.2165E-11  0.4800E+00
     -1.603  0.9683E-08  0.4800E+00
     -1.507  0.7183E-05  0.4800E+00
     -1.411  0.9108E-03  0.4801E+00
     -1.314  0.2074E-01  0.4821E+00
     -1.218  0.9077E-01  0.4908E+00
     -1.122  0.8055E-01  0.4986E+00
     -1.026  0.1442E-01  0.5000E+00
     -0.929  0.4907E-03  0.5000E+00
     -0.833  0.3441E-05  0.5000E+00
     -0.737  0.1341E-03  0.5000E+00
     -0.641  0.7030E-02  0.5007E+00
     -0.545  0.7562E-01  0.5080E+00
     -0.448  0.1910E+00  0.5263E+00
     -0.352  0.1223E+00  0.5381E+00
     -0.256  0.2245E-01  0.5403E+00
     -0.160  0.4318E-01  0.5444E+00
     -0.064  0.1147E+00  0.5555E+00
      0.033  0.1246E+00  0.5674E+00
      0.129  0.1252E+00  0.5795E+00
      0.225  0.1408E+00  0.5930E+00
      0.321  0.1987E+00  0.6122E+00
      0.417  0.3095E+00  0.6419E+00
      0.514  0.4524E+00  0.6854E+00
      0.610  0.2911E+00  0.7135E+00
      0.706  0.6435E-01  0.7196E+00
      0.802  0.3638E-02  0.7200E+00
      0.898  0.4187E-04  0.7200E+00
      0.995  0.8756E-07  0.7200E+00
      1.091  0.3148E-10  0.7200E+00
      1.187  0.1870E-14  0.7200E+00
      1.283  0.0000E+00  0.7200E+00
      1.379  0.0000E+00  0.7200E+00
      1.476  0.0000E+00  0.7200E+00
      1.572  0.0000E+00  0.7200E+00
      1.668  0.0000E+00  0.7200E+00
      1.764  0.0000E+00  0.7200E+00
      1.860  0.0000E+00  0.7200E+00
      1.86041017    -27.00056499  301     -6.41006302      1.00000000
    -27.001  0.0000E+00  0.0000E+00  0.0000E+00  0.0000E+00  0.0000E+00  0.0000E+00  0.0000E+00  0.0000E+00  0.0000E+00
    -26.904  0.0000E+00  0.0000E+00  0.0000E+00  0.0000E+00  0.0000E+00  0.0000E+00  0.0000E+00  0.0000E+00  0.0000E+00
    -26.808  0.0000E+00  0.0000E+00  0.0000E+00  0.0000E+00  0.0000E+00  0.0000E+00  0.0000E+00  0.0000E+00  0.0000E+00
    -26.712  0.0000E+00  0.0000E+00  0.0000E+00  0.0000E+00  0.0000E+00  0.0000E+00  0.0000E+00  0.0000E+00  0.0000E+00
    -26.616  0.0000E+00  0.0000E+00  0.0000E+00  0.0000E+00  0.0000E+00  0.0000E+00  0.0000E+00  0.0000E+00  0.0000E+00
    -26.520  0.0000E+00  0.0000E+00  0.0000E+00  0.0000E+00  0.0000E+00  0.0000E+00  0.0000E+00  0.0000E+00  0.0000E+00
    -26.423  0.0000E+00  0.0000E+00  0.0000E+00  0.0000E+00  0.0000E+00  0.0000E+00  0.0000E+00  0.0000E+00  0.0000E+00
    -26.327  0.0000E+00  0.0000E+00  0.0000E+00  0.0000E+00  0.0000E+00  0.0000E+00  0.0000E+00  0.0000E+00  0.0000E+00
    -26.231  0.9854E-15  0.1020E-15  0.5695E-18  0.3164E-16  0.0000E+00  0.0000E+00  0.0000E+00  0.0000E+00  0.0000E+00
    -26.135  0.1599E-10  0.1655E-11  0.9243E-14  0.5135E-12  0.0000E+00  0.0000E+00  0.0000E+00  0.0000E+00  0.0000E+00
    -26.039  0.4251E-07  0.4400E-08  0.2457E-10  0.1365E-08  0.0000E+00  0.0000E+00  0.0000E+00  0.0000E+00  0.0000E+00
    -25.942  0.1888E-04  0.1954E-05  0.1091E-07  0.6062E-06  0.0000E+00  0.0000E+00  0.0000E+00  0.0000E+00  0.0000E+00
    -25.846  0.1451E-02  0.1501E-03  0.8384E-06  0.4657E-04  0.0000E+00  0.0000E+00  0.0000E+00  0.0000E+00  0.0000E+00
    -25.750  0.2039E-01  0.2110E-02  0.1178E-04  0.6545E-03  0.0000E+00  0.0000E+00  0.0000E+00  0.0000E+00  0.0000E+00
    -25.654  0.5611E-01  0.5807E-02  0.3243E-04  0.1802E-02  0.0000E+00  0.0000E+00  0.0000E+00  0.0000E+00  0.0000E+00
    -25.558  0.3157E-01  0.3275E-02  0.1821E-04  0.1017E-02  0.0000E+00  0.0000E+00  0.0000E+00  0.0000E+00  0.0000E+00
    -25.461  0.7086E-02  0.1089E-02  0.2204E-05  0.3788E-03  0.0000E+00  0.0000E+00  0.0000E+00  0.0000E+00  0.0000E+00
    -25.365  0.3531E-01  0.6853E-02  0.1941E-05  0.2519E-02  0.0000E+00  0.0000E+00  0.0000E+00  0.0000E+00  0.0000E+00
    -25.269  0.1005E+00  0.1669E-01  0.7362E-05  0.6198E-02  0.0000E+00  0.0000E+00  0.0000E+00  0.0000E+00  0.0000E+00
    -25.173  0.1134E+00  0.1536E-01  0.1071E-04  0.5792E-02  0.0000E+00  0.0000E+00  0.0000E+00  0.0000E+00  0.0000E+00
    -25.076  0.4163E-01  0.5127E-02  0.4655E-05  0.1918E-02  0.0000E+00  0.0000E+00  0.0000E+00  0.0000E+00  0.0000E+00
    -24.980  0.1324E-01  0.1531E-02  0.2814E-05  0.4523E-03  0.0000E+00  0.0000E+00  0.0000E+00  0.0000E+00  0.0000E+00
    -24.884  0.7288E-01  0.1024E-01  0.2442E-05  0.3907E-02  0.0000E+00  0.0000E+00  0.0000E+00  0.0000E+00  0.0000E+00
    -24.788  0.2917E+00  0.4203E-01  0.1582E-05  0.1653E-01  0.0000E+00  0.0000E+00  0.0000E+00  0.0000E+00  0.0000E+00
    -24.692  0.2617E+00  0.3776E-01  0.1268E-05  0.1486E-01  0.0000E+00  0.0000E+00  0.0000E+00  0.0000E+00  0.0000E+00
    -24.595  0.1378E+00  0.2024E-01  0.4199E-05  0.7803E-02  0.0000E+00  0.0000E+00  0.0000E+00  0.0000E+00  0.0000E+00
    -24.499  0.3684E+00  0.5463E-01  0.1602E-04  0.2083E-01  0.0000E+00  0.0000E+00  0.0000E+00  0.0000E+00  0.0000E+00
    -24.403  0.2976E+00  0.4413E-01  0.1299E-04  0.1683E-01  0.0000E+00  0.0000E+00  0.0000E+00  0.0000E+00  0.0000E+00
    -24.307  0.4859E-01  0.7206E-02  0.2121E-05  0.2748E-02  0.0000E+00  0.0000E+00  0.0000E+00  0.0000E+00  0.0000E+00
    -24.211  0.1502E-02  0.2228E-03  0.6559E-07  0.8497E-04  0.0000E+00  0.0000E+00  0.0000E+00  0.0000E+00  0.0000E+00
    -24.114  0.8244E-05  0.1223E-05  0.3599E-09  0.4663E-06  0.0000E+00  0.0000E+00  0.0000E+00  0.0000E+00  0.0000E+00
    -24.018  0.7674E-08  0.1138E-08  0.3350E-12  0.4340E-09  0.0000E+00  0.0000E+00  0.0000E+00  0.0000E+00  0.0000E+00
    -23.922  0.1180E-11  0.1750E-12  0.5151E-16  0.6672E-13  0.0000E+00  0.0000E+00  0.0000E+00  0.0000E+00  0.0000E+00
    -23.826  0.0000E+00  0.0000E+00  0.0000E+00  0.0000E+00  0.0000E+00  0.0000E+00  0.0000E+00  0.0000E+00  0.0000E+00
    -23.730  0.0000E+00  0.0000E+00  0.0000E+00  0.0000E+00  0.0000E+00  0.0000E+00  0.0000E+00  0.0000E+00  0.0000E+00
    -23.633  0.0000E+00  0.0000E+00  0.0000E+00  0.0000E+00  0.0000E+00  0.0000E+00  0.0000E+00  0.0000E+00  0.0000E+00
    -23.537  0.0000E+00  0.0000E+00  0.0000E+00  0.0000E+00  0.0000E+00  0.0000E+00  0.0000E+00  0.0000E+00  0.0000E+00
    -23.441  0.0000E+00  0.0000E+00  0.0000E+00  0.0000E+00  0.0000E+00  0.0000E+00  0.0000E+00  0.0000E+00  0.0000E+00
    -23.345  0.0000E+00  0.0000E+00  0.0000E+00  0.0000E+00  0.0000E+00  0.0000E+00  0.0000E+00  0.0000E+00  0.0000E+00
    -23.249  0.0000E+00  0.0000E+00  0.0000E+00  0.0000E+00  0.0000E+00  0.0000E+00  0.0000E+00  0.0000E+00  0.0000E+00
    -23.152  0.0000E+00  0.0000E+00  0.0000E+00  0.0000E+00  0.0000E+00  0.0000E+00  0.0000E+00  0.0000E+00  0.0000E+00
    -23.056  0.0000E+00  0.0000E+00  0.0000E+00  0.0000E+00  0.0000E+00  0.0000E+00  0.0000E+00  0.0000E+00  0.0000E+00
    -22.960  0.0000E+00  0.0000E+00  0.0000E+00  0.0000E+00  0.0000E+00  0.0000E+00  0.0000E+00  0.0000E+00  0.0000E+00
    -22.864  0.0000E+00  0.0000E+00  0.0000E+00  0.0000E+00  0.0000E+00  0.0000E+00  0.0000E+00  0.0000E+00  0.0000E+00
    -22.768  0.0000E+00  0.0000E+00  0.0000E+00  0.0000E+00  0.0000E+00  0.0000E+00  0.0000E+00  0.0000E+00  0.0000E+00
    -22.671  0.0000E+00  0.0000E+00  0.0000E+00  0.0000E+00  0.0000E+00  0.0000E+00  0.0000E+00  0.0000E+00  0.0000E+00
    -22.575  0.0000E+00  0.0000E+00  0.0000E+00  0.0000E+00  0.0000E+00  0.0000E+00  0.0000E+00  0.0000E+00  0.0000E+00
    -22.479  0.0000E+00  0.0000E+00  0.0000E+00  0.0000E+00  0.0000E+00  0.0000E+00  0.0000E+00  0.0000E+00  0.0000E+00
    -22.383  0.0000E+00  0.0000E+00  0.0000E+00  0.0000E+00  0.0000E+00  0.0000E+00  0.0000E+00  0.0000E+00  0.0000E+00
    -22.287  0.0000E+00  0.0000E+00  0.0000E+00  0.0000E+00  0.0000E+00  0.0000E+00  0.0000E+00  0.0000E+00  0.0000E+00
    -22.190  0.0000E+00  0.0000E+00  0.0000E+00  0.0000E+00  0.0000E+00  0.0000E+00  0.0000E+00  0.0000E+00  0.0000E+00
    -22.094  0.0000E+00  0.0000E+00  0.0000E+00  0.0000E+00  0.0000E+00  0.0000E+00  0.0000E+00  0.0000E+00  0.0000E+00
    -21.998  0.0000E+00  0.0000E+00  0.0000E+00  0.0000E+00  0.0000E+00  0.0000E+00  0.0000E+00  0.0000E+00  0.0000E+00
    -21.902  0.0000E+00  0.0000E+00  0.0000E+00  0.0000E+00  0.0000E+00  0.0000E+00  0.0000E+00  0.0000E+00  0.0000E+00
    -21.806  0.0000E+00  0.0000E+00  0.0000E+00  0.0000E+00  0.0000E+00  0.0000E+00  0.0000E+00  0.0000E+00  0.0000E+00
    -21.709  0.0000E+00  0.0000E+00  0.0000E+00  0.0000E+00  0.0000E+00  0.0000E+00  0.0000E+00  0.0000E+00  0.0000E+00
    -21.613  0.0000E+00  0.0000E+00  0.0000E+00  0.0000E+00  0.0000E+00  0.0000E+00  0.0000E+00  0.0000E+00  0.0000E+00
    -21.517  0.0000E+00  0.0000E+00  0.0000E+00  0.0000E+00  0.0000E+00  0.0000E+00  0.0000E+00  0.0000E+00  0.0000E+00
    -21.421  0.0000E+00  0.0000E+00  0.0000E+00  0.0000E+00  0.0000E+00  0.0000E+00  0.0000E+00  0.0000E+00  0.0000E+00
    -21.325  0.0000E+00  0.0000E+00  0.0000E+00  0.0000E+00  0.0000E+00  0.0000E+00  0.0000E+00  0.0000E+00  0.0000E+00
    -21.228  0.0000E+00  0.0000E+00  0.0000E+00  0.0000E+00  0.0000E+00  0.0000E+00  0.0000E+00  0.0000E+00  0.0000E+00
    -21.132  0.0000E+00  0.0000E+00  0.0000E+00  0.0000E+00  0.0000E+00  0.0000E+00  0.0000E+00  0.0000E+00  0.0000E+00
    -21.036  0.0000E+00  0.0000E+00  0.0000E+00  0.0000E+00  0.0000E+00  0.0000E+00  0.0000E+00  0.0000E+00  0.0000E+00
    -20.940  0.0000E+00  0.0000E+00  0.0000E+00  0.0000E+00  0.0000E+00  0.0000E+00  0.0000E+00  0.0000E+00  0.0000E+00
    -20.844  0.0000E+00  0.0000E+00  0.0000E+00  0.0000E+00  0.0000E+00  0.0000E+00  0.0000E+00  0.0000E+00  0.0000E+00
    -20.747  0.0000E+00  0.0000E+00  0.0000E+00  0.0000E+00  0.0000E+00  0.0000E+00  0.0000E+00  0.0000E+00  0.0000E+00
    -20.651  0.0000E+00  0.0000E+00  0.0000E+00  0.0000E+00  0.0000E+00  0.0000E+00  0.0000E+00  0.0000E+00  0.0000E+00
    -20.555  0.0000E+00  0.0000E+00  0.0000E+00  0.0000E+00  0.0000E+00  0.0000E+00  0.0000E+00  0.0000E+00  0.0000E+00
    -20.459  0.0000E+00  0.0000E+00  0.0000E+00  0.0000E+00  0.0000E+00  0.0000E+00  0.0000E+00  0.0000E+00  0.0000E+00
    -20.363  0.0000E+00  0.0000E+00  0.0000E+00  0.0000E+00  0.0000E+00  0.0000E+00  0.0000E+00  0.0000E+00  0.0000E+00
    -20.266  0.0000E+00  0.0000E+00  0.0000E+00  0.0000E+00  0.0000E+00  0.0000E+00  0.0000E+00  0.0000E+00  0.0000E+00
    -20.170  0.0000E+00  0.0000E+00  0.0000E+00  0.0000E+00  0.0000E+00  0.0000E+00  0.0000E+00  0.0000E+00  0.0000E+00
    -20.074  0.0000E+00  0.0000E+00  0.0000E+00  0.0000E+00  0.0000E+00  0.0000E+00  0.0000E+00  0.0000E+00  0.0000E+00
    -19.978  0.0000E+00  0.0000E+00  0.0000E+00  0.0000E+00  0.0000E+00  0.0000E+00  0.0000E+00  0.0000E+00  0.0000E+00
    -19.882  0.0000E+00  0.0000E+00  0.0000E+00  0.0000E+00  0.0000E+00  0.0000E+00  0.0000E+00  0.0000E+00  0.0000E+00
    -19.785  0.0000E+00  0.0000E+00  0.0000E+00  0.0000E+00  0.0000E+00  0.0000E+00  0.0000E+00  0.0000E+00  0.0000E+00
    -19.689  0.0000E+00  0.0000E+00  0.0000E+00  0.0000E+00  0.0000E+00  0.0000E+00  0.0000E+00  0.0000E+00  0.0000E+00
    -19.593  0.0000E+00  0.0000E+00  0.0000E+00  0.0000E+00  0.0000E+00  0.0000E+00  0.0000E+00  0.0000E+00  0.0000E+00
    -19.497  0.0000E+00  0.0000E+00  0.0000E+00  0.0000E+00  0.0000E+00  0.0000E+00  0.0000E+00  0.0000E+00  0.0000E+00
    -19.401  0.0000E+00  0.0000E+00  0.0000E+00  0.0000E+00  0.0000E+00  0.0000E+00  0.0000E+00  0.0000E+00  0.0000E+00
    -19.304  0.0000E+00  0.0000E+00  0.0000E+00  0.0000E+00  0.0000E+00  0.0000E+00  0.0000E+00  0.0000E+00  0.0000E+00
    -19.208  0.0000E+00  0.0000E+00  0.0000E+00  0.0000E+00  0.0000E+00  0.0000E+00  0.0000E+00  0.0000E+00  0.0000E+00
    -19.112  0.0000E+00  0.0000E+00  0.0000E+00  0.0000E+00  0.0000E+00  0.0000E+00  0.0000E+00  0.0000E+00  0.0000E+00
    -19.016  0.0000E+00  0.0000E+00  0.0000E+00  0.0000E+00  0.0000E+00  0.0000E+00  0.0000E+00  0.0000E+00  0.0000E+00
    -18.919  0.0000E+00  0.0000E+00  0.0000E+00  0.0000E+00  0.0000E+00  0.0000E+00  0.0000E+00  0.0000E+00  0.0000E+00
    -18.823  0.0000E+00  0.0000E+00  0.0000E+00  0.0000E+00  0.0000E+00  0.0000E+00  0.0000E+00  0.0000E+00  0.0000E+00
    -18.727  0.0000E+00  0.0000E+00  0.0000E+00  0.0000E+00  0.0000E+00  0.0000E+00  0.0000E+00  0.0000E+00  0.0000E+00
    -18.631  0.0000E+00  0.0000E+00  0.0000E+00  0.0000E+00  0.0000E+00  0.0000E+00  0.0000E+00  0.0000E+00  0.0000E+00
    -18.535  0.0000E+00  0.0000E+00  0.0000E+00  0.0000E+00  0.0000E+00  0.0000E+00  0.0000E+00  0.0000E+00  0.0000E+00
    -18.438  0.0000E+00  0.0000E+00  0.0000E+00  0.0000E+00  0.0000E+00  0.0000E+00  0.0000E+00  0.0000E+00  0.0000E+00
    -18.342  0.0000E+00  0.0000E+00  0.0000E+00  0.0000E+00  0.0000E+00  0.0000E+00  0.0000E+00  0.0000E+00  0.0000E+00
    -18.246  0.0000E+00  0.0000E+00  0.0000E+00  0.0000E+00  0.0000E+00  0.0000E+00  0.0000E+00  0.0000E+00  0.0000E+00
    -18.150  0.0000E+00  0.0000E+00  0.0000E+00  0.0000E+00  0.0000E+00  0.0000E+00  0.0000E+00  0.0000E+00  0.0000E+00
    -18.054  0.0000E+00  0.0000E+00  0.0000E+00  0.0000E+00  0.0000E+00  0.0000E+00  0.0000E+00  0.0000E+00  0.0000E+00
    -17.957  0.0000E+00  0.0000E+00  0.0000E+00  0.0000E+00  0.0000E+00  0.0000E+00  0.0000E+00  0.0000E+00  0.0000E+00
    -17.861  0.0000E+00  0.0000E+00  0.0000E+00  0.0000E+00  0.0000E+00  0.0000E+00  0.0000E+00  0.0000E+00  0.0000E+00
    -17.765  0.0000E+00  0.0000E+00  0.0000E+00  0.0000E+00  0.0000E+00  0.0000E+00  0.0000E+00  0.0000E+00  0.0000E+00
    -17.669  0.0000E+00  0.0000E+00  0.0000E+00  0.0000E+00  0.0000E+00  0.0000E+00  0.0000E+00  0.0000E+00  0.0000E+00
    -17.573  0.0000E+00  0.0000E+00  0.0000E+00  0.0000E+00  0.0000E+00  0.0000E+00  0.0000E+00  0.0000E+00  0.0000E+00
    -17.476  0.0000E+00  0.0000E+00  0.0000E+00  0.0000E+00  0.0000E+00  0.0000E+00  0.0000E+00  0.0000E+00  0.0000E+00
    -17.380  0.0000E+00  0.0000E+00  0.0000E+00  0.0000E+00  0.0000E+00  0.0000E+00  0.0000E+00  0.0000E+00  0.0000E+00
    -17.284  0.0000E+00  0.0000E+00  0.0000E+00  0.0000E+00  0.0000E+00  0.0000E+00  0.0000E+00  0.0000E+00  0.0000E+00
    -17.188  0.0000E+00  0.0000E+00  0.0000E+00  0.0000E+00  0.0000E+00  0.0000E+00  0.0000E+00  0.0000E+00  0.0000E+00
    -17.092  0.0000E+00  0.0000E+00  0.0000E+00  0.0000E+00  0.0000E+00  0.0000E+00  0.0000E+00  0.0000E+00  0.0000E+00
    -16.995  0.0000E+00  0.0000E+00  0.0000E+00  0.0000E+00  0.0000E+00  0.0000E+00  0.0000E+00  0.0000E+00  0.0000E+00
    -16.899  0.0000E+00  0.0000E+00  0.0000E+00  0.0000E+00  0.0000E+00  0.0000E+00  0.0000E+00  0.0000E+00  0.0000E+00
    -16.803  0.0000E+00  0.0000E+00  0.0000E+00  0.0000E+00  0.0000E+00  0.0000E+00  0.0000E+00  0.0000E+00  0.0000E+00
    -16.707  0.0000E+00  0.0000E+00  0.0000E+00  0.0000E+00  0.0000E+00  0.0000E+00  0.0000E+00  0.0000E+00  0.0000E+00
    -16.611  0.0000E+00  0.0000E+00  0.0000E+00  0.0000E+00  0.0000E+00  0.0000E+00  0.0000E+00  0.0000E+00  0.0000E+00
    -16.514  0.0000E+00  0.0000E+00  0.0000E+00  0.0000E+00  0.0000E+00  0.0000E+00  0.0000E+00  0.0000E+00  0.0000E+00
    -16.418  0.0000E+00  0.0000E+00  0.0000E+00  0.0000E+00  0.0000E+00  0.0000E+00  0.0000E+00  0.0000E+00  0.0000E+00
    -16.322  0.0000E+00  0.0000E+00  0.0000E+00  0.0000E+00  0.0000E+00  0.0000E+00  0.0000E+00  0.0000E+00  0.0000E+00
    -16.226  0.0000E+00  0.0000E+00  0.0000E+00  0.0000E+00  0.0000E+00  0.0000E+00  0.0000E+00  0.0000E+00  0.0000E+00
    -16.130  0.0000E+00  0.0000E+00  0.0000E+00  0.0000E+00  0.0000E+00  0.0000E+00  0.0000E+00  0.0000E+00  0.0000E+00
    -16.033  0.0000E+00  0.0000E+00  0.0000E+00  0.0000E+00  0.0000E+00  0.0000E+00  0.0000E+00  0.0000E+00  0.0000E+00
    -15.937  0.0000E+00  0.0000E+00  0.0000E+00  0.0000E+00  0.0000E+00  0.0000E+00  0.0000E+00  0.0000E+00  0.0000E+00
    -15.841  0.0000E+00  0.0000E+00  0.0000E+00  0.0000E+00  0.0000E+00  0.0000E+00  0.0000E+00  0.0000E+00  0.0000E+00
    -15.745  0.0000E+00  0.0000E+00  0.0000E+00  0.0000E+00  0.0000E+00  0.0000E+00  0.0000E+00  0.0000E+00  0.0000E+00
    -15.649  0.0000E+00  0.0000E+00  0.0000E+00  0.0000E+00  0.0000E+00  0.0000E+00  0.0000E+00  0.0000E+00  0.0000E+00
    -15.552  0.0000E+00  0.0000E+00  0.0000E+00  0.0000E+00  0.0000E+00  0.0000E+00  0.0000E+00  0.0000E+00  0.0000E+00
    -15.456  0.0000E+00  0.0000E+00  0.0000E+00  0.0000E+00  0.0000E+00  0.0000E+00  0.0000E+00  0.0000E+00  0.0000E+00
    -15.360  0.0000E+00  0.0000E+00  0.0000E+00  0.0000E+00  0.0000E+00  0.0000E+00  0.0000E+00  0.0000E+00  0.0000E+00
    -15.264  0.0000E+00  0.0000E+00  0.0000E+00  0.0000E+00  0.0000E+00  0.0000E+00  0.0000E+00  0.0000E+00  0.0000E+00
    -15.168  0.0000E+00  0.0000E+00  0.0000E+00  0.0000E+00  0.0000E+00  0.0000E+00  0.0000E+00  0.0000E+00  0.0000E+00
    -15.071  0.0000E+00  0.0000E+00  0.0000E+00  0.0000E+00  0.0000E+00  0.0000E+00  0.0000E+00  0.0000E+00  0.0000E+00
    -14.975  0.0000E+00  0.0000E+00  0.0000E+00  0.0000E+00  0.0000E+00  0.0000E+00  0.0000E+00  0.0000E+00  0.0000E+00
    -14.879  0.0000E+00  0.0000E+00  0.0000E+00  0.0000E+00  0.0000E+00  0.0000E+00  0.0000E+00  0.0000E+00  0.0000E+00
    -14.783  0.0000E+00  0.0000E+00  0.0000E+00  0.0000E+00  0.0000E+00  0.0000E+00  0.0000E+00  0.0000E+00  0.0000E+00
    -14.687  0.0000E+00  0.0000E+00  0.0000E+00  0.0000E+00  0.0000E+00  0.0000E+00  0.0000E+00  0.0000E+00  0.0000E+00
    -14.590  0.0000E+00  0.0000E+00  0.0000E+00  0.0000E+00  0.0000E+00  0.0000E+00  0.0000E+00  0.0000E+00  0.0000E+00
    -14.494  0.0000E+00  0.0000E+00  0.0000E+00  0.0000E+00  0.0000E+00  0.0000E+00  0.0000E+00  0.0000E+00  0.0000E+00
    -14.398  0.0000E+00  0.0000E+00  0.0000E+00  0.0000E+00  0.0000E+00  0.0000E+00  0.0000E+00  0.0000E+00  0.0000E+00
    -14.302  0.0000E+00  0.0000E+00  0.0000E+00  0.0000E+00  0.0000E+00  0.0000E+00  0.0000E+00  0.0000E+00  0.0000E+00
    -14.206  0.4422E-14  0.3013E-15  0.3146E-16  0.1413E-15  0.0000E+00  0.0000E+00  0.0000E+00  0.0000E+00  0.0000E+00
    -14.109  0.4521E-10  0.3081E-11  0.3217E-12  0.1445E-11  0.0000E+00  0.0000E+00  0.0000E+00  0.0000E+00  0.0000E+00
    -14.013  0.7598E-07  0.5177E-08  0.5407E-09  0.2429E-08  0.0000E+00  0.0000E+00  0.0000E+00  0.0000E+00  0.0000E+00
    -13.917  0.2149E-04  0.1464E-05  0.1529E-06  0.6868E-06  0.0000E+00  0.0000E+00  0.0000E+00  0.0000E+00  0.0000E+00
    -13.821  0.1064E-02  0.7250E-04  0.7571E-05  0.3401E-04  0.0000E+00  0.0000E+00  0.0000E+00  0.0000E+00  0.0000E+00
    -13.725  0.9805E-02  0.6681E-03  0.6977E-04  0.3134E-03  0.0000E+00  0.0000E+00  0.0000E+00  0.0000E+00  0.0000E+00
    -13.628  0.1797E-01  0.1224E-02  0.1279E-03  0.5744E-03  0.0000E+00  0.0000E+00  0.0000E+00  0.0000E+00  0.0000E+00
    -13.532  0.6736E-02  0.4583E-03  0.4792E-04  0.2155E-03  0.0000E+00  0.0000E+00  0.0000E+00  0.0000E+00  0.0000E+00
    -13.436  0.1749E-02  0.7761E-04  0.1145E-04  0.6968E-04  0.0000E+00  0.0000E+00  0.0000E+00  0.0000E+00  0.0000E+00
    -13.340  0.1486E-01  0.5211E-03  0.9395E-04  0.6376E-03  0.0000E+00  0.0000E+00  0.0000E+00  0.0000E+00  0.0000E+00
    -13.244  0.3466E-01  0.1222E-02  0.2190E-03  0.1488E-02  0.0000E+00  0.0000E+00  0.0000E+00  0.0000E+00  0.0000E+00
    -13.147  0.2049E-01  0.1067E-02  0.1276E-03  0.8281E-03  0.0000E+00  0.0000E+00  0.0000E+00  0.0000E+00  0.0000E+00
    -13.051  0.6523E-01  0.7133E-02  0.4325E-03  0.1149E-02  0.0000E+00  0.0000E+00  0.0000E+00  0.0000E+00  0.0000E+00
    -12.955  0.2451E+00  0.2604E-01  0.1722E-02  0.2567E-02  0.0000E+00  0.0000E+00  0.0000E+00  0.0000E+00  0.0000E+00
    -12.859  0.2108E+00  0.2202E-01  0.1512E-02  0.1693E-02  0.0000E+00  0.0000E+00  0.0000E+00  0.0000E+00  0.0000E+00
    -12.762  0.3788E-01  0.3934E-02  0.2744E-03  0.2741E-03  0.0000E+00  0.0000E+00  0.0000E+00  0.0000E+00  0.0000E+00
    -12.666  0.3502E-02  0.3309E-03  0.4153E-04  0.4631E-04  0.0000E+00  0.0000E+00  0.0000E+00  0.0000E+00  0.0000E+00
    -12.570  0.9455E-01  0.8404E-02  0.4500E-03  0.6447E-03  0.0000E+00  0.0000E+00  0.0000E+00  0.0000E+00  0.0000E+00
    -12.474  0.7651E+00  0.6800E-01  0.2703E-02  0.4252E-02  0.0000E+00  0.0000E+00  0.0000E+00  0.0000E+00  0.0000E+00
    -12.378  0.1237E+01  0.1099E+00  0.4164E-02  0.6662E-02  0.0000E+00  0.0000E+00  0.0000E+00  0.0000E+00  0.0000E+00
    -12.281  0.4074E+00  0.3621E-01  0.1362E-02  0.2185E-02  0.0000E+00  0.0000E+00  0.0000E+00  0.0000E+00  0.0000E+00
    -12.185  0.2618E-01  0.2327E-02  0.8749E-04  0.1404E-03  0.0000E+00  0.0000E+00  0.0000E+00  0.0000E+00  0.0000E+00
    -12.089  0.3066E-03  0.2725E-04  0.1024E-05  0.1643E-05  0.0000E+00  0.0000E+00  0.0000E+00  0.0000E+00  0.0000E+00
    -11.993  0.6195E-06  0.5505E-07  0.2069E-08  0.3320E-08  0.0000E+00  0.0000E+00  0.0000E+00  0.0000E+00  0.0000E+00