   18   18  100    1
  0.4444444E+03  0.2000000E-08  0.2000000E-08  0.2000000E-08  0.5000000E-15
  1.000000000000000E-004
  CAR 
 VaspCalc                                
     48      1     36
 
  0.0000000E+00  0.0000000E+00  0.0000000E+00  0.1000000E+01
    1      -25.688702   1.000000
    2      -25.331166   1.000000
    3      -25.226677   1.000000
    4      -24.988544   1.000000
    5      -24.795291   1.000000
    6      -24.511966   1.000000
    7      -13.687822   1.000000
    8      -13.288536   1.000000
    9      -13.032064   1.000000
   10      -12.960971   1.000000
   11      -12.564616   1.000000
   12      -12.444766   1.000000
   13      -10.587075   1.000000
   14       -9.773043   1.000000
   15       -9.601039   1.000000
   16       -9.173159   1.000000
   17       -9.074874   1.000000
   18       -8.469920   1.000000
   19       -7.669502   1.000000
   20       -7.595401   1.000000
   21       -7.490293   1.000000
   22       -7.187502   1.000000
   23       -6.975524   1.000000
   24       -6.911398   1.000000
   25       -1.225343   0.000000
   26       -0.508752   0.000000
   27       -0.450936   0.000000
   28       -0.105181   0.000000
   29        0.051738   0.000000
   30        0.216035   0.000000
   31        0.313451   0.000000
   32        0.428924   0.000000
   33        0.445843   0.000000
   34        0.457244   0.000000
   35        0.520325   0.000000
   36        0.548548   0.000000
