============================================================
/var/spool/torque/aux//4582
Job name: VASP_JOB
Job ID: 4582
Job submitted to queue: batch
Number of nodes: 3
Number of processors: 48
VASP is running on the following nodes:

    node22:16
    node21:16
    node20:16

============================================================

 running on   48 total cores
 distrk:  each k-point on   48 cores,    1 groups
 distr:  one band on   12 cores,    4 groups
 using from now: INCAR     
 vasp.5.4.4.18Apr17-6-g9f103f2a35 (build Jan 13 2019 13:55:41) complex          
  
 POSCAR found type information on POSCAR  H  O 
 POSCAR found :  2 types and      18 ions
 scaLAPACK will be used

 ----------------------------------------------------------------------------- 
|                                                                             |
|  ADVICE TO THIS USER RUNNING 'VASP/VAMP'   (HEAR YOUR MASTER'S VOICE ...):  |
|                                                                             |
|      You have a (more or less) 'large supercell' and for larger cells       |
|      it might be more efficient to use real space projection opertators     |
|      So try LREAL= Auto  in the INCAR   file.                               |
|      Mind:          For very  accurate calculation you might also keep the  |
|      reciprocal projection scheme          (i.e. LREAL=.FALSE.)             |
|                                                                             |
 ----------------------------------------------------------------------------- 

 LDA part: xc-table for Pade appr. of Perdew
 POSCAR, INCAR and KPOINTS ok, starting setup
 FFT: planning ...
 WAVECAR not read
 WARNING: random wavefunctions but no delay for mixing, default for NELMDL
 entering main loop
       N       E                     dE             d eps       ncg     rms          rms(c)
DAV:   1     0.518928217530E+03    0.51893E+03   -0.86499E+03    88   0.542E+02
DAV:   2     0.211800509079E+03   -0.30713E+03   -0.29518E+03   136   0.113E+02
DAV:   3    -0.435918352030E+02   -0.25539E+03   -0.24650E+03   112   0.108E+02
DAV:   4    -0.959920743393E+02   -0.52400E+02   -0.52323E+02    72   0.693E+01
DAV:   5    -0.969711598483E+02   -0.97909E+00   -0.97828E+00    96   0.121E+01    0.179E+01
RMM:   6    -0.881063163231E+02    0.88648E+01   -0.34339E+01    72   0.243E+01    0.698E+00
RMM:   7    -0.877337514158E+02    0.37256E+00   -0.19296E+00    72   0.467E+00    0.450E+00
RMM:   8    -0.874888107974E+02    0.24494E+00   -0.49425E-01    72   0.383E+00    0.739E-01
RMM:   9    -0.874581862201E+02    0.30625E-01   -0.16440E-01    72   0.139E+00    0.343E-01
RMM:  10    -0.874563899240E+02    0.17963E-02   -0.42785E-02    74   0.626E-01    0.377E-01
RMM:  11    -0.874574513050E+02   -0.10614E-02   -0.10694E-02    72   0.459E-01    0.103E-01
RMM:  12    -0.874721895001E+02   -0.14738E-01   -0.85626E-03    72   0.368E-01    0.117E-01
RMM:  13    -0.874779828326E+02   -0.57933E-02   -0.24084E-03    74   0.150E-01    0.530E-02
RMM:  14    -0.874851764981E+02   -0.71937E-02   -0.21408E-03    73   0.154E-01    0.348E-02
RMM:  15    -0.874863052951E+02   -0.11288E-02   -0.25127E-04    74   0.504E-02    0.168E-02
RMM:  16    -0.874882447338E+02   -0.19394E-02   -0.26233E-04    72   0.512E-02    0.809E-03
RMM:  17    -0.874890380387E+02   -0.79330E-03   -0.13648E-04    73   0.392E-02    0.189E-02
RMM:  18    -0.874893813251E+02   -0.34329E-03   -0.10515E-04    72   0.392E-02    0.607E-03
RMM:  19    -0.874895898150E+02   -0.20849E-03   -0.89150E-06    64   0.994E-03    0.693E-03
RMM:  20    -0.874896579000E+02   -0.68085E-04   -0.77538E-06    68   0.107E-02    0.101E-03
RMM:  21    -0.874896949105E+02   -0.37010E-04   -0.10459E-06    48   0.411E-03    0.119E-03
RMM:  22    -0.874897055765E+02   -0.10666E-04   -0.25820E-07    48   0.206E-03    0.103E-03
RMM:  23    -0.874897128553E+02   -0.72788E-05   -0.30843E-07    47   0.230E-03    0.401E-04
RMM:  24    -0.874897152751E+02   -0.24198E-05   -0.37551E-08    31   0.105E-03    0.227E-04
RMM:  25    -0.874897181071E+02   -0.28320E-05   -0.98929E-08    46   0.140E-03    0.344E-04
RMM:  26    -0.874897186894E+02   -0.58226E-06   -0.29876E-09    25   0.799E-04
   1 F= -.87489719E+02 E0= -.87489719E+02  d E =-.874897E+02
 curvature:   0.00 expect dE= 0.000E+00 dE for cont linesearch  0.000E+00
 trial: gam= 0.00000 g(F)=  0.269E-03 g(S)=  0.000E+00 ort = 0.000E+00 (trialstep = 0.100E+01)
 search vector abs. value=  0.269E-03
 bond charge predicted
       N       E                     dE             d eps       ncg     rms          rms(c)
DAV:   1    -0.874895625988E+02    0.15551E-03   -0.41829E-02    88   0.116E+00    0.460E-02
RMM:   2    -0.874896335544E+02   -0.70956E-04   -0.11421E-03    72   0.176E-01    0.276E-02
RMM:   3    -0.874896228097E+02    0.10745E-04   -0.35299E-05    72   0.263E-02    0.160E-02
RMM:   4    -0.874896207122E+02    0.20975E-05   -0.16809E-05    71   0.161E-02    0.416E-03
RMM:   5    -0.874896201117E+02    0.60043E-06   -0.16872E-06    49   0.504E-03
   2 F= -.87489620E+02 E0= -.87489620E+02  d E =0.985777E-04
 trial-energy change:    0.000099  1 .order    0.000089   -0.000269    0.000447
 step:   0.3572(harm=  0.3756)  dis= 0.00037  next Energy=   -87.489766 (dE=-0.476E-04)
 bond charge predicted
       N       E                     dE             d eps       ncg     rms          rms(c)
DAV:   1    -0.874897364380E+02   -0.11573E-03   -0.17272E-02    84   0.744E-01    0.296E-02
RMM:   2    -0.874897685804E+02   -0.32142E-04   -0.46493E-04    72   0.112E-01    0.177E-02
RMM:   3    -0.874897665145E+02    0.20659E-05   -0.14693E-05    71   0.169E-02    0.101E-02
RMM:   4    -0.874897685205E+02   -0.20060E-05   -0.66860E-06    65   0.102E-02    0.263E-03
RMM:   5    -0.874897693747E+02   -0.85425E-06   -0.67740E-07    48   0.347E-03
   3 F= -.87489769E+02 E0= -.87489769E+02  d E =-.506854E-04
 curvature:  -0.19 expect dE=-0.160E-04 dE for cont linesearch -0.419E-07
 trial: gam= 0.28851 g(F)=  0.853E-04 g(S)=  0.000E+00 ort = 0.774E-05 (trialstep = 0.871E+00)
 search vector abs. value=  0.112E-03
 bond charge predicted
       N       E                     dE             d eps       ncg     rms          rms(c)
DAV:   1    -0.874898059730E+02   -0.37452E-04   -0.76717E-03    88   0.492E-01    0.188E-02
RMM:   2    -0.874898165985E+02   -0.10625E-04   -0.15940E-04    72   0.652E-02    0.103E-02
RMM:   3    -0.874898163029E+02    0.29553E-06   -0.39387E-06    61   0.922E-03    0.615E-03
RMM:   4    -0.874898170735E+02   -0.77061E-06   -0.33524E-06    59   0.755E-03
   4 F= -.87489817E+02 E0= -.87489817E+02  d E =-.476988E-04
 trial-energy change:   -0.000048  1 .order   -0.000048   -0.000076   -0.000020
 step:   1.1711(harm=  1.1711)  dis= 0.00081  next Energy=   -87.489821 (dE=-0.512E-04)
 bond charge predicted
       N       E                     dE             d eps       ncg     rms          rms(c)
DAV:   1    -0.874898186252E+02   -0.23223E-05   -0.90717E-04    88   0.169E-01    0.661E-03
RMM:   2    -0.874898198902E+02   -0.12650E-05   -0.19638E-05    72   0.228E-02    0.364E-03
RMM:   3    -0.874898198835E+02    0.67039E-08   -0.41103E-07    48   0.319E-03    0.220E-03
RMM:   4    -0.874898200942E+02   -0.21071E-06   -0.47965E-07    48   0.306E-03
   5 F= -.87489820E+02 E0= -.87489820E+02  d E =-.507195E-04
 curvature:  -0.75 expect dE=-0.223E-03 dE for cont linesearch -0.853E-08
 trial: gam= 3.55896 g(F)=  0.298E-03 g(S)=  0.000E+00 ort =-0.113E-05 (trialstep = 0.611E-01)
 search vector abs. value=  0.171E-02
 bond charge predicted
       N       E                     dE             d eps       ncg     rms          rms(c)
DAV:   1    -0.874898368585E+02   -0.16975E-04   -0.45264E-04    88   0.119E-01    0.459E-03
RMM:   2    -0.874898375552E+02   -0.69673E-06   -0.84341E-06    66   0.149E-02    0.247E-03
RMM:   3    -0.874898376706E+02   -0.11544E-06   -0.21759E-07    48   0.239E-03    0.142E-03
RMM:   4    -0.874898379234E+02   -0.25279E-06   -0.18750E-07    48   0.197E-03
   6 F= -.87489838E+02 E0= -.87489838E+02  d E =-.178292E-04
 ZBRENT: can't locate minimum, use default step
 trial-energy change:   -0.000018  1 .order   -0.000017   -0.000018   -0.000017
 step:   0.2443(harm=  1.0281)  dis= 0.00068  next Energy=   -87.489971 (dE=-0.151E-03)
 bond charge predicted
       N       E                     dE             d eps       ncg     rms          rms(c)
DAV:   1    -0.874898771392E+02   -0.39469E-04   -0.40650E-03    96   0.357E-01    0.134E-02
RMM:   2    -0.874898827211E+02   -0.55820E-05   -0.74857E-05    72   0.443E-02    0.736E-03
RMM:   3    -0.874898828268E+02   -0.10565E-06   -0.14330E-06    49   0.598E-03    0.426E-03
RMM:   4    -0.874898832534E+02   -0.42658E-06   -0.16454E-06    48   0.584E-03
   7 F= -.87489883E+02 E0= -.87489883E+02  d E =-.631591E-04
 curvature:  -1.03 expect dE=-0.205E-03 dE for cont linesearch -0.302E-04
 ZBRENT: increasing intervall
 opt :   0.6107  next Energy=   -87.489946 (dE=-0.126E-03)
 bond charge predicted
       N       E                     dE             d eps       ncg     rms          rms(c)
DAV:   1    -0.874899191093E+02   -0.36283E-04   -0.16265E-02    80   0.715E-01    0.269E-02
RMM:   2    -0.874899415098E+02   -0.22400E-04   -0.30106E-04    72   0.888E-02    0.147E-02
RMM:   3    -0.874899417482E+02   -0.23844E-06   -0.66099E-06    68   0.120E-02    0.856E-03
RMM:   4    -0.874899431325E+02   -0.13843E-05   -0.62485E-06    66   0.103E-02    0.187E-03
RMM:   5    -0.874899432138E+02   -0.81322E-07   -0.24032E-07    48   0.228E-03
   8 F= -.87489943E+02 E0= -.87489943E+02  d E =-.123120E-03
 curvature:  -2.15 expect dE=-0.273E-03 dE for cont linesearch -0.159E-04
 ZBRENT: increasing intervall
 opt :   1.3435  next Energy=   -87.489943 (dE=-0.123E-03)
 bond charge predicted
       N       E                     dE             d eps       ncg     rms          rms(c)
DAV:   1    -0.874898471413E+02    0.95991E-04   -0.65088E-02    80   0.143E+00    0.536E-02
RMM:   2    -0.874899371650E+02   -0.90024E-04   -0.11946E-03    72   0.177E-01    0.296E-02
RMM:   3    -0.874899379645E+02   -0.79951E-06   -0.26375E-05    72   0.239E-02    0.171E-02
RMM:   4    -0.874899441100E+02   -0.61455E-05   -0.24366E-05    72   0.202E-02    0.369E-03
RMM:   5    -0.874899443698E+02   -0.25980E-06   -0.10013E-06    49   0.421E-03
   9 F= -.87489944E+02 E0= -.87489944E+02  d E =-.124276E-03
 curvature:  -0.04 expect dE=-0.993E-05 dE for cont linesearch -0.225E-06
 ZBRENT: bracketing found
 ZBRENT: interpolating
 opt :   0.9923  next Energy=   -87.489963 (dE=-0.142E-03)
 bond charge predicted
       N       E                     dE             d eps       ncg     rms          rms(c)
DAV:   1    -0.874899394282E+02    0.46818E-05   -0.14878E-02    88   0.684E-01    0.256E-02
RMM:   2    -0.874899613969E+02   -0.21969E-04   -0.26896E-04    72   0.842E-02    0.140E-02
RMM:   3    -0.874899632034E+02   -0.18065E-05   -0.58856E-06    68   0.114E-02    0.802E-03
RMM:   4    -0.874899668322E+02   -0.36289E-05   -0.54340E-06    64   0.958E-03    0.161E-03
RMM:   5    -0.874899672172E+02   -0.38502E-06   -0.19141E-07    48   0.205E-03
  10 F= -.87489967E+02 E0= -.87489967E+02  d E =-.147123E-03
 curvature:  -2.90 expect dE=-0.451E-03 dE for cont linesearch -0.718E-07
 trial: gam= 0.34709 g(F)=  0.155E-03 g(S)=  0.000E+00 ort = 0.650E-05 (trialstep = 0.247E+00)
 search vector abs. value=  0.366E-03
 bond charge predicted
       N       E                     dE             d eps       ncg     rms          rms(c)
DAV:   1    -0.874899948011E+02   -0.27969E-04   -0.16290E-03    88   0.229E-01    0.984E-03
RMM:   2    -0.874899975218E+02   -0.27207E-05   -0.39573E-05    72   0.329E-02    0.578E-03
RMM:   3    -0.874899973773E+02    0.14448E-06   -0.10701E-06    48   0.509E-03    0.330E-03
RMM:   4    -0.874899976302E+02   -0.25291E-06   -0.12097E-06    48   0.486E-03
  11 F= -.87489998E+02 E0= -.87489998E+02  d E =-.304130E-04
 trial-energy change:   -0.000030  1 .order   -0.000029   -0.000039   -0.000020
 step:   0.5065(harm=  0.5065)  dis= 0.00074  next Energy=   -87.490007 (dE=-0.399E-04)
 bond charge predicted
       N       E                     dE             d eps       ncg     rms          rms(c)
DAV:   1    -0.874900049993E+02   -0.76220E-05   -0.17973E-03    88   0.241E-01    0.105E-02
RMM:   2    -0.874900077155E+02   -0.27162E-05   -0.45243E-05    72   0.352E-02    0.632E-03
RMM:   3    -0.874900072110E+02    0.50449E-06   -0.12537E-06    48   0.554E-03    0.363E-03
RMM:   4    -0.874900070847E+02    0.12626E-06   -0.15558E-06    49   0.550E-03
  12 F= -.87490007E+02 E0= -.87490007E+02  d E =-.398675E-04
 curvature:  -0.59 expect dE=-0.330E-04 dE for cont linesearch -0.702E-09
 trial: gam= 0.38107 g(F)=  0.561E-04 g(S)=  0.000E+00 ort =-0.661E-06 (trialstep = 0.299E+00)
 search vector abs. value=  0.109E-03
 bond charge predicted
       N       E                     dE             d eps       ncg     rms          rms(c)
DAV:   1    -0.874900207856E+02   -0.13575E-04   -0.58952E-04    84   0.137E-01    0.604E-03
RMM:   2    -0.874900217123E+02   -0.92670E-06   -0.12364E-05    71   0.178E-02    0.346E-03
RMM:   3    -0.874900217231E+02   -0.10830E-07   -0.31024E-07    48   0.284E-03    0.197E-03
RMM:   4    -0.874900219676E+02   -0.24445E-06   -0.49137E-07    48   0.308E-03
  13 F= -.87490022E+02 E0= -.87490022E+02  d E =-.148829E-04
 ZBRENT: can't locate minimum, use default step
 trial-energy change:   -0.000015  1 .order   -0.000015   -0.000017   -0.000013
 step:   1.1966(harm=  1.2896)  dis= 0.00076  next Energy=   -87.490043 (dE=-0.360E-04)
 bond charge predicted
       N       E                     dE             d eps       ncg     rms          rms(c)
DAV:   1    -0.874900346703E+02   -0.12947E-04   -0.53023E-03    96   0.411E-01    0.177E-02
RMM:   2    -0.874900421707E+02   -0.75004E-05   -0.10504E-04    72   0.519E-02    0.995E-03
RMM:   3    -0.874900418240E+02    0.34668E-06   -0.26268E-06    52   0.802E-03    0.559E-03
RMM:   4    -0.874900424346E+02   -0.61058E-06   -0.35097E-06    59   0.779E-03
  14 F= -.87490042E+02 E0= -.87490042E+02  d E =-.353498E-04
 curvature:  -1.24 expect dE=-0.175E-03 dE for cont linesearch -0.290E-06
 trial: gam= 2.38248 g(F)=  0.140E-03 g(S)=  0.000E+00 ort = 0.503E-05 (trialstep = 0.666E-01)
 search vector abs. value=  0.781E-03
 bond charge predicted
       N       E                     dE             d eps       ncg     rms          rms(c)
DAV:   1    -0.874900512994E+02   -0.94755E-05   -0.33008E-04    88   0.103E-01    0.441E-03
RMM:   2    -0.874900518435E+02   -0.54407E-06   -0.75303E-06    66   0.141E-02    0.245E-03
RMM:   3    -0.874900518906E+02   -0.47130E-07   -0.20225E-07    48   0.230E-03    0.149E-03
RMM:   4    -0.874900521598E+02   -0.26913E-06   -0.30131E-07    48   0.232E-03
  15 F= -.87490052E+02 E0= -.87490052E+02  d E =-.972521E-05
 ZBRENT: can't locate minimum, use default step
 trial-energy change:   -0.000010  1 .order   -0.000010   -0.000010   -0.000009
 step:   0.2664(harm=  0.5815)  dis= 0.00042  next Energy=   -87.490087 (dE=-0.443E-04)
 bond charge predicted
       N       E                     dE             d eps       ncg     rms          rms(c)
DAV:   1    -0.874900697797E+02   -0.17889E-04   -0.29415E-03    88   0.306E-01    0.124E-02
RMM:   2    -0.874900737833E+02   -0.40036E-05   -0.60140E-05    72   0.400E-02    0.658E-03
RMM:   3    -0.874900736420E+02    0.14131E-06   -0.11500E-06    48   0.547E-03    0.385E-03
RMM:   4    -0.874900740240E+02   -0.38202E-06   -0.15634E-06    49   0.542E-03
  16 F= -.87490074E+02 E0= -.87490074E+02  d E =-.315894E-04
 curvature:  -0.93 expect dE=-0.453E-04 dE for cont linesearch -0.947E-05
 ZBRENT: increasing intervall
 opt :   0.6660  next Energy=   -87.490091 (dE=-0.489E-04)
 bond charge predicted
       N       E                     dE             d eps       ncg     rms          rms(c)
DAV:   1    -0.874900717654E+02    0.18766E-05   -0.11766E-02    88   0.613E-01    0.246E-02
RMM:   2    -0.874900879063E+02   -0.16141E-04   -0.24016E-04    72   0.799E-02    0.132E-02
RMM:   3    -0.874900872747E+02    0.63164E-06   -0.53331E-06    67   0.109E-02    0.768E-03
RMM:   4    -0.874900883226E+02   -0.10479E-05   -0.55313E-06    65   0.933E-03    0.181E-03
RMM:   5    -0.874900884233E+02   -0.10071E-06   -0.24328E-07    48   0.227E-03
  17 F= -.87490088E+02 E0= -.87490088E+02  d E =-.459887E-04
 curvature:  -1.70 expect dE=-0.151E-03 dE for cont linesearch -0.162E-06
 trial: gam= 0.87679 g(F)=  0.884E-04 g(S)=  0.000E+00 ort =-0.861E-05 (trialstep = 0.186E+00)
 search vector abs. value=  0.674E-03
 bond charge predicted
       N       E                     dE             d eps       ncg     rms          rms(c)
DAV:   1    -0.874900998018E+02   -0.11479E-04   -0.16106E-03    88   0.227E-01    0.947E-03
RMM:   2    -0.874901023429E+02   -0.25411E-05   -0.32344E-05    72   0.293E-02    0.528E-03
RMM:   3    -0.874901024172E+02   -0.74272E-07   -0.70980E-07    48   0.430E-03    0.294E-03
RMM:   4    -0.874901029373E+02   -0.52011E-06   -0.97422E-07    48   0.429E-03
  18 F= -.87490103E+02 E0= -.87490103E+02  d E =-.145140E-04
 ZBRENT: can't locate minimum, use default step
 trial-energy change:   -0.000015  1 .order   -0.000014   -0.000015   -0.000013
 step:   0.7459(harm=  1.1092)  dis= 0.00098  next Energy=   -87.490133 (dE=-0.449E-04)
 bond charge predicted
       N       E                     dE             d eps       ncg     rms          rms(c)
DAV:   1    -0.874901023155E+02    0.10171E-06   -0.14418E-02    80   0.679E-01    0.285E-02
RMM:   2    -0.874901238806E+02   -0.21565E-04   -0.28841E-04    72   0.874E-02    0.155E-02
RMM:   3    -0.874901238829E+02   -0.22515E-08   -0.68445E-06    68   0.125E-02    0.867E-03
RMM:   4    -0.874901256995E+02   -0.18166E-05   -0.67161E-06    66   0.103E-02    0.249E-03
RMM:   5    -0.874901258369E+02   -0.13741E-06   -0.93666E-07    48   0.415E-03
  19 F= -.87490126E+02 E0= -.87490126E+02  d E =-.374136E-04
 curvature:  -3.90 expect dE=-0.471E-03 dE for cont linesearch -0.182E-05
 trial: gam= 0.89434 g(F)=  0.121E-03 g(S)=  0.000E+00 ort = 0.177E-04 (trialstep = 0.291E+00)
 search vector abs. value=  0.691E-03
 bond charge predicted
       N       E                     dE             d eps       ncg     rms          rms(c)
DAV:   1    -0.874901559398E+02   -0.30240E-04   -0.33302E-03    88   0.328E-01    0.135E-02
RMM:   2    -0.874901609594E+02   -0.50195E-05   -0.64108E-05    72   0.419E-02    0.756E-03
RMM:   3    -0.874901611155E+02   -0.15615E-06   -0.13761E-06    48   0.605E-03    0.410E-03
RMM:   4    -0.874901618765E+02   -0.76097E-06   -0.15530E-06    48   0.563E-03
  20 F= -.87490162E+02 E0= -.87490162E+02  d E =-.360396E-04
 ZBRENT: can't locate minimum, use default step
 trial-energy change:   -0.000036  1 .order   -0.000036   -0.000040   -0.000032
 step:   1.1632(harm=  1.4205)  dis= 0.00168  next Energy=   -87.490223 (dE=-0.970E-04)
 bond charge predicted
       N       E                     dE             d eps       ncg     rms          rms(c)
DAV:   1    -0.874901631066E+02   -0.19911E-05   -0.29977E-02    88   0.983E-01    0.407E-02
RMM:   2    -0.874902079721E+02   -0.44865E-04   -0.58240E-04    72   0.126E-01    0.228E-02
RMM:   3    -0.874902083312E+02   -0.35913E-06   -0.14386E-05    72   0.182E-02    0.124E-02
RMM:   4    -0.874902119194E+02   -0.35882E-05   -0.11024E-05    66   0.135E-02    0.304E-03
RMM:   5    -0.874902122796E+02   -0.36019E-06   -0.12591E-06    48   0.500E-03
  21 F= -.87490212E+02 E0= -.87490212E+02  d E =-.864427E-04
 curvature:  -3.41 expect dE=-0.750E-03 dE for cont linesearch -0.100E-05
 trial: gam= 2.10452 g(F)=  0.220E-03 g(S)=  0.000E+00 ort = 0.142E-04 (trialstep = 0.963E-01)
 search vector abs. value=  0.334E-02
 bond charge predicted
       N       E                     dE             d eps       ncg     rms          rms(c)
DAV:   1    -0.874902318556E+02   -0.19936E-04   -0.20384E-03    84   0.255E-01    0.100E-02
RMM:   2    -0.874902351188E+02   -0.32633E-05   -0.38862E-05    72   0.326E-02    0.555E-03
RMM:   3    -0.874902355785E+02   -0.45969E-06   -0.71674E-07    48   0.436E-03    0.309E-03
RMM:   4    -0.874902367952E+02   -0.12167E-05   -0.91650E-07    48   0.424E-03    0.667E-04
RMM:   5    -0.874902373481E+02   -0.55291E-06   -0.10836E-07    44   0.162E-03
  22 F= -.87490237E+02 E0= -.87490237E+02  d E =-.250685E-04
 ZBRENT: can't locate minimum, use default step
 trial-energy change:   -0.000025  1 .order   -0.000022   -0.000024   -0.000021
 step:   0.3850(harm=  0.7317)  dis= 0.00113  next Energy=   -87.490304 (dE=-0.914E-04)
 bond charge predicted
       N       E                     dE             d eps       ncg     rms          rms(c)
DAV:   1    -0.874902530605E+02   -0.16265E-04   -0.18346E-02    88   0.764E-01    0.303E-02
RMM:   2    -0.874902802021E+02   -0.27142E-04   -0.35102E-04    72   0.980E-02    0.167E-02
RMM:   3    -0.874902807913E+02   -0.58921E-06   -0.73809E-06    71   0.131E-02    0.926E-03
RMM:   4    -0.874902833305E+02   -0.25392E-05   -0.71365E-06    66   0.107E-02    0.197E-03
RMM:   5    -0.874902836603E+02   -0.32980E-06   -0.33735E-07    48   0.268E-03
  23 F= -.87490284E+02 E0= -.87490284E+02  d E =-.713807E-04
 curvature:  -3.44 expect dE=-0.256E-03 dE for cont linesearch -0.102E-04
 ZBRENT: increasing intervall
 opt :   0.9625  next Energy=   -87.490273 (dE=-0.609E-04)
 bond charge predicted
       N       E                     dE             d eps       ncg     rms          rms(c)
DAV:   1    -0.874901508090E+02    0.13252E-03   -0.73339E-02    72   0.153E+00    0.606E-02
RMM:   2    -0.874902598129E+02   -0.10900E-03   -0.14034E-03    72   0.196E-01    0.334E-02
RMM:   3    -0.874902619223E+02   -0.21094E-05   -0.29354E-05    72   0.260E-02    0.185E-02
RMM:   4    -0.874902708957E+02   -0.89734E-05   -0.28172E-05    72   0.212E-02    0.392E-03
RMM:   5    -0.874902714771E+02   -0.58145E-06   -0.11665E-06    48   0.475E-03
  24 F= -.87490271E+02 E0= -.87490271E+02  d E =-.591975E-04
 curvature:   3.53 expect dE= 0.150E-02 dE for cont linesearch  0.185E-04
 ZBRENT: bracketing found
 ZBRENT: interpolating
 opt :   0.6328  next Energy=   -87.490296 (dE=-0.837E-04)
 bond charge predicted
       N       E                     dE             d eps       ncg     rms          rms(c)
DAV:   1    -0.874902521061E+02    0.18790E-04   -0.23824E-02    88   0.870E-01    0.346E-02
RMM:   2    -0.874902899243E+02   -0.37818E-04   -0.45068E-04    72   0.111E-01    0.189E-02
RMM:   3    -0.874902933112E+02   -0.33869E-05   -0.93931E-06    72   0.148E-02    0.104E-02
RMM:   4    -0.874902996825E+02   -0.63713E-05   -0.89310E-06    66   0.120E-02    0.209E-03
RMM:   5    -0.874903002462E+02   -0.56367E-06   -0.28530E-07    48   0.253E-03
  25 F= -.87490300E+02 E0= -.87490300E+02  d E =-.879666E-04
 curvature:  -2.35 expect dE=-0.331E-03 dE for cont linesearch -0.122E-06
 trial: gam= 0.74135 g(F)=  0.141E-03 g(S)=  0.000E+00 ort = 0.132E-04 (trialstep = 0.204E+00)
 search vector abs. value=  0.200E-02
 bond charge predicted
       N       E                     dE             d eps       ncg     rms          rms(c)
DAV:   1    -0.874903153523E+02   -0.15670E-04   -0.55291E-03    88   0.419E-01    0.174E-02
RMM:   2    -0.874903240698E+02   -0.87175E-05   -0.11219E-04    72   0.552E-02    0.909E-03
RMM:   3    -0.874903247840E+02   -0.71424E-06   -0.21977E-06    49   0.756E-03    0.501E-03
RMM:   4    -0.874903259496E+02   -0.11656E-05   -0.20582E-06    49   0.654E-03    0.878E-04
RMM:   5    -0.874903260810E+02   -0.13139E-06   -0.22356E-07    48   0.241E-03
  26 F= -.87490326E+02 E0= -.87490326E+02  d E =-.258349E-04
 trial-energy change:   -0.000026  1 .order   -0.000024   -0.000031   -0.000018
 step:   0.4867(harm=  0.4867)  dis= 0.00100  next Energy=   -87.490337 (dE=-0.366E-04)
 bond charge predicted
       N       E                     dE             d eps       ncg     rms          rms(c)
DAV:   1    -0.874903199233E+02    0.60264E-05   -0.10755E-02    88   0.585E-01    0.243E-02
RMM:   2    -0.874903363413E+02   -0.16418E-04   -0.22118E-04    72   0.774E-02    0.128E-02
RMM:   3    -0.874903370635E+02   -0.72216E-06   -0.49721E-06    65   0.106E-02    0.710E-03
RMM:   4    -0.874903384256E+02   -0.13621E-05   -0.39108E-06    65   0.805E-03    0.137E-03
RMM:   5    -0.874903385157E+02   -0.90111E-07   -0.16205E-07    48   0.188E-03
  27 F= -.87490339E+02 E0= -.87490339E+02  d E =-.382695E-04
 curvature:  -3.23 expect dE=-0.164E-03 dE for cont linesearch -0.246E-07
 trial: gam= 0.26056 g(F)=  0.508E-04 g(S)=  0.000E+00 ort = 0.390E-05 (trialstep = 0.260E+00)
 search vector abs. value=  0.188E-03
 bond charge predicted
       N       E                     dE             d eps       ncg     rms          rms(c)
DAV:   1    -0.874903483696E+02   -0.99440E-05   -0.80538E-04    88   0.160E-01    0.696E-03
RMM:   2    -0.874903498005E+02   -0.14308E-05   -0.17910E-05    72   0.219E-02    0.405E-03
RMM:   3    -0.874903499184E+02   -0.11793E-06   -0.45278E-07    48   0.337E-03    0.226E-03
RMM:   4    -0.874903503697E+02   -0.45132E-06   -0.51402E-07    48   0.315E-03
  28 F= -.87490350E+02 E0= -.87490350E+02  d E =-.118540E-04
 trial-energy change:   -0.000012  1 .order   -0.000011   -0.000013   -0.000009
 step:   0.7211(harm=  0.7211)  dis= 0.00073  next Energy=   -87.490357 (dE=-0.187E-04)
 bond charge predicted
       N       E                     dE             d eps       ncg     rms          rms(c)
DAV:   1    -0.874903531615E+02   -0.32432E-05   -0.25155E-03    88   0.283E-01    0.124E-02
RMM:   2    -0.874903572907E+02   -0.41292E-05   -0.56399E-05    72   0.389E-02    0.716E-03
RMM:   3    -0.874903572477E+02    0.43040E-07   -0.13369E-06    48   0.583E-03    0.405E-03
RMM:   4    -0.874903577937E+02   -0.54603E-06   -0.16627E-06    49   0.565E-03
  29 F= -.87490358E+02 E0= -.87490358E+02  d E =-.192780E-04
 curvature:  -1.31 expect dE=-0.131E-03 dE for cont linesearch -0.147E-07
 trial: gam= 2.03423 g(F)=  0.100E-03 g(S)=  0.000E+00 ort =-0.146E-05 (trialstep = 0.760E-01)
 search vector abs. value=  0.874E-03
 bond charge predicted
       N       E                     dE             d eps       ncg     rms          rms(c)
DAV:   1    -0.874903643614E+02   -0.71137E-05   -0.36688E-04    88   0.106E-01    0.467E-03
RMM:   2    -0.874903649762E+02   -0.61484E-06   -0.76478E-06    65   0.140E-02    0.262E-03
RMM:   3    -0.874903650642E+02   -0.87993E-07   -0.20752E-07    48   0.237E-03    0.152E-03
RMM:   4    -0.874903653160E+02   -0.25174E-06   -0.26959E-07    48   0.223E-03
  30 F= -.87490365E+02 E0= -.87490365E+02  d E =-.752225E-05
 ZBRENT: can't locate minimum, use default step
 trial-energy change:   -0.000008  1 .order   -0.000007   -0.000007   -0.000007
 step:   0.3039(harm=  1.2364)  dis= 0.00045  next Energy=   -87.490418 (dE=-0.600E-04)
 bond charge predicted
       N       E                     dE             d eps       ncg     rms          rms(c)
DAV:   1    -0.874903784451E+02   -0.13381E-04   -0.32767E-03    88   0.318E-01    0.134E-02
RMM:   2    -0.874903830497E+02   -0.46046E-05   -0.63625E-05    72   0.403E-02    0.744E-03
RMM:   3    -0.874903830352E+02    0.14435E-07   -0.12105E-06    48   0.563E-03    0.424E-03
RMM:   4    -0.874903834812E+02   -0.44598E-06   -0.18817E-06    51   0.588E-03
  31 F= -.87490383E+02 E0= -.87490383E+02  d E =-.256875E-04
 curvature:  -1.97 expect dE=-0.147E-03 dE for cont linesearch -0.123E-04
 ZBRENT: increasing intervall
 opt :   0.7598  next Energy=   -87.490409 (dE=-0.515E-04)
 bond charge predicted
       N       E                     dE             d eps       ncg     rms          rms(c)
DAV:   1    -0.874903858347E+02   -0.27995E-05   -0.13108E-02    80   0.636E-01    0.268E-02
RMM:   2    -0.874904043123E+02   -0.18478E-04   -0.25555E-04    72   0.807E-02    0.149E-02
RMM:   3    -0.874904040897E+02    0.22255E-06   -0.56090E-06    64   0.113E-02    0.850E-03
RMM:   4    -0.874904054430E+02   -0.13533E-05   -0.66387E-06    64   0.103E-02    0.245E-03
RMM:   5    -0.874904055166E+02   -0.73600E-07   -0.76491E-07    48   0.382E-03
  32 F= -.87490406E+02 E0= -.87490406E+02  d E =-.477229E-04
 curvature:  -4.13 expect dE=-0.294E-03 dE for cont linesearch -0.495E-05
 ZBRENT: increasing intervall
 opt :   1.6715  next Energy=   -87.490397 (dE=-0.393E-04)
 bond charge predicted
       N       E                     dE             d eps       ncg     rms          rms(c)
DAV:   1    -0.874903172298E+02    0.88213E-04   -0.52373E-02    80   0.127E+00    0.530E-02
RMM:   2    -0.874903917539E+02   -0.74524E-04   -0.99961E-04    72   0.160E-01    0.297E-02
RMM:   3    -0.874903906620E+02    0.10918E-05   -0.22655E-05    72   0.224E-02    0.167E-02
RMM:   4    -0.874903967653E+02   -0.61033E-05   -0.23523E-05    70   0.189E-02    0.456E-03
RMM:   5    -0.874903969879E+02   -0.22255E-06   -0.33339E-06    56   0.734E-03
  33 F= -.87490397E+02 E0= -.87490397E+02  d E =-.391941E-04
 curvature:   7.02 expect dE= 0.144E-02 dE for cont linesearch  0.143E-04
 ZBRENT: bracketing found
 ZBRENT: interpolating
 opt :   1.1557  next Energy=   -87.490412 (dE=-0.541E-04)
 bond charge predicted
       N       E                     dE             d eps       ncg     rms          rms(c)
DAV:   1    -0.874903800750E+02    0.16690E-04   -0.16774E-02    88   0.719E-01    0.302E-02
RMM:   2    -0.874904063903E+02   -0.26315E-04   -0.32127E-04    72   0.906E-02    0.169E-02
RMM:   3    -0.874904083172E+02   -0.19269E-05   -0.71324E-06    65   0.127E-02    0.951E-03
RMM:   4    -0.874904137724E+02   -0.54552E-05   -0.82715E-06    66   0.113E-02    0.267E-03
RMM:   5    -0.874904142410E+02   -0.46859E-06   -0.95836E-07    48   0.425E-03
  34 F= -.87490414E+02 E0= -.87490414E+02  d E =-.564473E-04
 curvature:  -3.15 expect dE=-0.343E-03 dE for cont linesearch -0.111E-06
 trial: gam= 0.78207 g(F)=  0.109E-03 g(S)=  0.000E+00 ort = 0.555E-05 (trialstep = 0.292E+00)
 search vector abs. value=  0.652E-03
 bond charge predicted
       N       E                     dE             d eps       ncg     rms          rms(c)
DAV:   1    -0.874904261750E+02   -0.12403E-04   -0.56905E-03    84   0.418E-01    0.173E-02
RMM:   2    -0.874904342470E+02   -0.80720E-05   -0.11646E-04    72   0.553E-02    0.939E-03
RMM:   3    -0.874904341981E+02    0.48908E-07   -0.28976E-06    55   0.806E-03    0.519E-03
RMM:   4    -0.874904350759E+02   -0.87779E-06   -0.20782E-06    52   0.618E-03
  35 F= -.87490435E+02 E0= -.87490435E+02  d E =-.208348E-04
 trial-energy change:   -0.000021  1 .order   -0.000020   -0.000033   -0.000008
 step:   0.3812(harm=  0.3812)  dis= 0.00058  next Energy=   -87.490436 (dE=-0.216E-04)
 bond charge predicted
       N       E                     dE             d eps       ncg     rms          rms(c)
DAV:   1    -0.874904352626E+02   -0.10645E-05   -0.52960E-04    88   0.128E-01    0.534E-03
RMM:   2    -0.874904360827E+02   -0.82010E-06   -0.11173E-05    69   0.171E-02    0.289E-03
RMM:   3    -0.874904361198E+02   -0.37121E-07   -0.26902E-07    48   0.264E-03    0.163E-03
RMM:   4    -0.874904362750E+02   -0.15521E-06   -0.21792E-07    48   0.210E-03
  36 F= -.87490436E+02 E0= -.87490436E+02  d E =-.220340E-04
 curvature:  -1.10 expect dE=-0.395E-04 dE for cont linesearch -0.945E-08
 trial: gam= 0.38348 g(F)=  0.359E-04 g(S)=  0.000E+00 ort =-0.237E-05 (trialstep = 0.310E+00)
 search vector abs. value=  0.130E-03
 bond charge predicted
       N       E                     dE             d eps       ncg     rms          rms(c)
DAV:   1    -0.874904445097E+02   -0.83899E-05   -0.59243E-04    88   0.138E-01    0.603E-03
RMM:   2    -0.874904453372E+02   -0.82750E-06   -0.11588E-05    70   0.177E-02    0.333E-03
RMM:   3    -0.874904454512E+02   -0.11401E-06   -0.30376E-07    48   0.279E-03    0.173E-03
RMM:   4    -0.874904456222E+02   -0.17096E-06   -0.17619E-07    48   0.203E-03
  37 F= -.87490446E+02 E0= -.87490446E+02  d E =-.934716E-05
 trial-energy change:   -0.000009  1 .order   -0.000009   -0.000011   -0.000008
 step:   1.0222(harm=  1.0222)  dis= 0.00082  next Energy=   -87.490454 (dE=-0.179E-04)
 reached required accuracy - stopping structural energy minimisation
