============================================================
/var/spool/torque/aux//4574
Job name: VASP_JOB
Job ID: 4574
Job submitted to queue: batch
Number of nodes: 3
Number of processors: 48
VASP is running on the following nodes:

    node23:16
    node22:16
    node21:16

============================================================

 running on   48 total cores
 distrk:  each k-point on   48 cores,    1 groups
 distr:  one band on   12 cores,    4 groups
 using from now: INCAR     
 vasp.5.4.4.18Apr17-6-g9f103f2a35 (build Jan 13 2019 13:55:41) complex          
  
 POSCAR found type information on POSCAR  H  O 
 POSCAR found :  2 types and      18 ions
 scaLAPACK will be used

 ----------------------------------------------------------------------------- 
|                                                                             |
|  ADVICE TO THIS USER RUNNING 'VASP/VAMP'   (HEAR YOUR MASTER'S VOICE ...):  |
|                                                                             |
|      You have a (more or less) 'large supercell' and for larger cells       |
|      it might be more efficient to use real space projection opertators     |
|      So try LREAL= Auto  in the INCAR   file.                               |
|      Mind:          For very  accurate calculation you might also keep the  |
|      reciprocal projection scheme          (i.e. LREAL=.FALSE.)             |
|                                                                             |
 ----------------------------------------------------------------------------- 

 LDA part: xc-table for Pade appr. of Perdew
 POSCAR, INCAR and KPOINTS ok, starting setup
 FFT: planning ...
 WAVECAR not read
 WARNING: random wavefunctions but no delay for mixing, default for NELMDL
 entering main loop
       N       E                     dE             d eps       ncg     rms          rms(c)
DAV:   1     0.517401783098E+03    0.51740E+03   -0.85836E+03    88   0.539E+02
DAV:   2     0.227923105107E+03   -0.28948E+03   -0.27522E+03   128   0.111E+02
DAV:   3    -0.398700096250E+02   -0.26779E+03   -0.26359E+03   120   0.105E+02
DAV:   4    -0.955773815718E+02   -0.55707E+02   -0.55592E+02    84   0.664E+01
DAV:   5    -0.967030496330E+02   -0.11257E+01   -0.11252E+01    88   0.125E+01    0.182E+01
RMM:   6    -0.875525008269E+02    0.91505E+01   -0.35733E+01    72   0.248E+01    0.713E+00
RMM:   7    -0.871763691678E+02    0.37613E+00   -0.18956E+00    72   0.464E+00    0.460E+00
RMM:   8    -0.869271917925E+02    0.24918E+00   -0.51002E-01    72   0.388E+00    0.742E-01
RMM:   9    -0.868933993220E+02    0.33792E-01   -0.17690E-01    72   0.143E+00    0.370E-01
RMM:  10    -0.868898282173E+02    0.35711E-02   -0.16875E-02    72   0.471E-01    0.180E-01
RMM:  11    -0.868907831736E+02   -0.95496E-03   -0.78316E-03    72   0.346E-01    0.971E-02
RMM:  12    -0.869049409461E+02   -0.14158E-01   -0.10752E-02    74   0.288E-01    0.897E-02
RMM:  13    -0.869119475316E+02   -0.70066E-02   -0.29281E-03    72   0.208E-01    0.384E-02
RMM:  14    -0.869170389733E+02   -0.50914E-02   -0.73137E-04    72   0.863E-02    0.474E-02
RMM:  15    -0.869199243554E+02   -0.28854E-02   -0.94191E-04    73   0.105E-01    0.190E-02
RMM:  16    -0.869216107491E+02   -0.16864E-02   -0.29230E-04    73   0.529E-02    0.539E-03
RMM:  17    -0.869220957198E+02   -0.48497E-03   -0.71995E-05    77   0.222E-02    0.835E-03
RMM:  18    -0.869224655928E+02   -0.36987E-03   -0.25788E-05    72   0.178E-02    0.213E-03
RMM:  19    -0.869225645833E+02   -0.98991E-04   -0.65123E-06    64   0.890E-03    0.544E-03
RMM:  20    -0.869226107337E+02   -0.46150E-04   -0.41233E-06    64   0.824E-03    0.670E-04
RMM:  21    -0.869226328834E+02   -0.22150E-04   -0.71393E-07    48   0.360E-03    0.101E-03
RMM:  22    -0.869226412238E+02   -0.83404E-05   -0.16635E-07    46   0.168E-03    0.729E-04
RMM:  23    -0.869226480878E+02   -0.68639E-05   -0.19947E-07    48   0.184E-03    0.195E-04
RMM:  24    -0.869226503648E+02   -0.22770E-05   -0.17668E-08    27   0.795E-04    0.928E-05
RMM:  25    -0.869226522710E+02   -0.19062E-05   -0.21245E-08    29   0.916E-04    0.485E-05
RMM:  26    -0.869226533908E+02   -0.11198E-05   -0.24831E-09    25   0.879E-04    0.344E-05
RMM:  27    -0.869226539221E+02   -0.53126E-06   -0.90805E-09    27   0.899E-04
   1 F= -.86922654E+02 E0= -.86922654E+02  d E =-.869227E+02
 curvature:   0.00 expect dE= 0.000E+00 dE for cont linesearch  0.000E+00
 trial: gam= 0.00000 g(F)=  0.255E+01 g(S)=  0.000E+00 ort = 0.000E+00 (trialstep = 0.100E+01)
 search vector abs. value=  0.255E+01
 bond charge predicted
       N       E                     dE             d eps       ncg     rms          rms(c)
DAV:   1    -0.813243081303E+02    0.55983E+01   -0.39258E+02    80   0.912E+01    0.500E+00
RMM:   2    -0.827142262477E+02   -0.13899E+01   -0.19284E+01    72   0.164E+01    0.438E+00
RMM:   3    -0.824250626474E+02    0.28916E+00   -0.56200E-01    72   0.263E+00    0.305E+00
RMM:   4    -0.823128689329E+02    0.11219E+00   -0.15105E+00    72   0.366E+00    0.973E-01
RMM:   5    -0.822975122486E+02    0.15357E-01   -0.15474E-01    72   0.143E+00    0.429E-01
RMM:   6    -0.823006102932E+02   -0.30980E-02   -0.73491E-03    72   0.315E-01    0.332E-01
RMM:   7    -0.823014897130E+02   -0.87942E-03   -0.35343E-02    72   0.606E-01    0.217E-01
RMM:   8    -0.823012642863E+02    0.22543E-03   -0.46886E-03    72   0.247E-01    0.342E-02
RMM:   9    -0.823016507065E+02   -0.38642E-03   -0.64615E-04    72   0.805E-02    0.229E-02
RMM:  10    -0.823027050934E+02   -0.10544E-02   -0.37265E-04    69   0.519E-02    0.200E-02
RMM:  11    -0.823028573918E+02   -0.15230E-03   -0.50845E-05    72   0.166E-02    0.160E-02
RMM:  12    -0.823030616053E+02   -0.20421E-03   -0.10314E-04    72   0.311E-02    0.567E-03
RMM:  13    -0.823031318678E+02   -0.70263E-04   -0.78992E-06    64   0.957E-03    0.253E-03
RMM:  14    -0.823031984458E+02   -0.66578E-04   -0.26055E-06    53   0.480E-03    0.208E-03
RMM:  15    -0.823032301860E+02   -0.31740E-04   -0.22434E-06    52   0.449E-03    0.114E-03
RMM:  16    -0.823032486100E+02   -0.18424E-04   -0.12713E-06    49   0.362E-03    0.103E-03
RMM:  17    -0.823032536991E+02   -0.50890E-05   -0.22859E-07    42   0.162E-03    0.592E-04
RMM:  18    -0.823032598129E+02   -0.61138E-05   -0.17429E-07    39   0.150E-03    0.182E-04
RMM:  19    -0.823032632888E+02   -0.34759E-05   -0.85692E-08    37   0.118E-03    0.158E-04
RMM:  20    -0.823032639542E+02   -0.66537E-06   -0.11665E-08    26   0.853E-04
   2 F= -.82303264E+02 E0= -.82303264E+02  d E =0.461939E+01
 trial-energy change:    4.619390  1 .order    9.516763   -2.545001   21.578528
 step:   0.1055(harm=  0.1055)  dis= 0.01845  next Energy=   -87.056901 (dE=-0.134E+00)
 bond charge predicted
       N       E                     dE             d eps       ncg     rms          rms(c)
DAV:   1    -0.871432510723E+02   -0.48400E+01   -0.32712E+02    88   0.836E+01    0.583E+00
RMM:   2    -0.873574445154E+02   -0.21419E+00   -0.10968E+01    72   0.125E+01    0.293E+00
RMM:   3    -0.872067755319E+02    0.15067E+00   -0.32850E-01    72   0.223E+00    0.182E+00
RMM:   4    -0.871646150477E+02    0.42160E-01   -0.49691E-01    72   0.218E+00    0.671E-01
RMM:   5    -0.871546892299E+02    0.99258E-02   -0.37931E-02    72   0.634E-01    0.233E-01
RMM:   6    -0.871567297105E+02   -0.20405E-02   -0.30316E-02    72   0.550E-01    0.300E-01
RMM:   7    -0.871555189899E+02    0.12107E-02   -0.22738E-02    72   0.468E-01    0.152E-01
RMM:   8    -0.871555581482E+02   -0.39158E-04   -0.26339E-03    72   0.171E-01    0.217E-02
RMM:   9    -0.871564850796E+02   -0.92693E-03   -0.20935E-03    73   0.133E-01    0.103E-01
RMM:  10    -0.871570686936E+02   -0.58361E-03   -0.95877E-04    72   0.963E-02    0.250E-02
RMM:  11    -0.871574036039E+02   -0.33491E-03   -0.26833E-04    73   0.486E-02    0.980E-03
RMM:  12    -0.871577967489E+02   -0.39314E-03   -0.37389E-05    68   0.186E-02    0.272E-03
RMM:  13    -0.871579339048E+02   -0.13716E-03   -0.13208E-05    66   0.942E-03    0.577E-03
RMM:  14    -0.871580848021E+02   -0.15090E-03   -0.13396E-05    64   0.110E-02    0.169E-03
RMM:  15    -0.871581188476E+02   -0.34045E-04   -0.12027E-06    49   0.349E-03    0.126E-03
RMM:  16    -0.871581541696E+02   -0.35322E-04   -0.13212E-06    50   0.322E-03    0.968E-04
RMM:  17    -0.871581698612E+02   -0.15692E-04   -0.60851E-07    43   0.252E-03    0.478E-04
RMM:  18    -0.871581741041E+02   -0.42429E-05   -0.37351E-07    43   0.212E-03    0.591E-04
RMM:  19    -0.871581771973E+02   -0.30932E-05   -0.13882E-07    40   0.141E-03    0.355E-04
RMM:  20    -0.871581786019E+02   -0.14046E-05   -0.64466E-08    36   0.107E-03    0.109E-04
RMM:  21    -0.871581795351E+02   -0.93321E-06   -0.61537E-09    26   0.766E-04
   3 F= -.87158180E+02 E0= -.87158180E+02  d E =-.235526E+00
 curvature:  -0.05 expect dE=-0.770E-01 dE for cont linesearch -0.748E-01
 ZBRENT: interpolating
 opt :   0.1779  next Energy=   -87.226904 (dE=-0.304E+00)
 bond charge predicted
       N       E                     dE             d eps       ncg     rms          rms(c)
DAV:   1    -0.872739675121E+02   -0.11579E+00   -0.20088E+00    88   0.674E+00    0.314E-01
RMM:   2    -0.872775198492E+02   -0.35523E-02   -0.54967E-02    72   0.106E+00    0.203E-01
RMM:   3    -0.872769048574E+02    0.61499E-03   -0.17018E-03    72   0.167E-01    0.114E-01
RMM:   4    -0.872769405470E+02   -0.35690E-04   -0.81603E-04    72   0.958E-02    0.295E-02
RMM:   5    -0.872769901415E+02   -0.49595E-04   -0.77673E-05    72   0.291E-02    0.101E-02
RMM:   6    -0.872770209746E+02   -0.30833E-04   -0.99400E-06    64   0.111E-02    0.227E-03
RMM:   7    -0.872770350171E+02   -0.14043E-04   -0.14850E-06    50   0.400E-03    0.132E-03
RMM:   8    -0.872770651744E+02   -0.30157E-04   -0.50434E-06    59   0.581E-03    0.120E-03
RMM:   9    -0.872770753308E+02   -0.10156E-04   -0.16334E-06    49   0.394E-03    0.821E-04
RMM:  10    -0.872770811345E+02   -0.58038E-05   -0.84075E-07    43   0.252E-03    0.417E-04
RMM:  11    -0.872770864325E+02   -0.52979E-05   -0.59121E-07    47   0.249E-03    0.487E-04
RMM:  12    -0.872770874470E+02   -0.10145E-05   -0.18753E-07    38   0.139E-03    0.173E-04
RMM:  13    -0.872770895913E+02   -0.21443E-05   -0.14702E-07    42   0.142E-03    0.301E-04
RMM:  14    -0.872770905774E+02   -0.98617E-06   -0.42144E-08    30   0.929E-04
   4 F= -.87277091E+02 E0= -.87277091E+02  d E =-.354437E+00
 curvature:  -0.05 expect dE=-0.407E-01 dE for cont linesearch -0.360E-01
 ZBRENT: interpolating
 opt :   0.3558  next Energy=   -87.406659 (dE=-0.484E+00)
 bond charge predicted
       N       E                     dE             d eps       ncg     rms          rms(c)
DAV:   1    -0.873607560531E+02   -0.83666E-01   -0.12366E+01    88   0.173E+01    0.792E-01
RMM:   2    -0.873845066960E+02   -0.23751E-01   -0.36411E-01    72   0.264E+00    0.553E-01
RMM:   3    -0.873793400822E+02    0.51666E-02   -0.12717E-02    72   0.437E-01    0.313E-01
RMM:   4    -0.873790254917E+02    0.31459E-03   -0.61333E-03    72   0.253E-01    0.923E-02
RMM:   5    -0.873793528261E+02   -0.32733E-03   -0.74443E-04    72   0.897E-02    0.239E-02
RMM:   6    -0.873794606791E+02   -0.10785E-03   -0.44313E-05    73   0.219E-02    0.113E-02
RMM:   7    -0.873795776382E+02   -0.11696E-03   -0.28026E-05    67   0.168E-02    0.425E-03
RMM:   8    -0.873796228377E+02   -0.45199E-04   -0.73627E-06    58   0.744E-03    0.277E-03
RMM:   9    -0.873797259604E+02   -0.10312E-03   -0.23484E-05    65   0.118E-02    0.164E-03
RMM:  10    -0.873797407880E+02   -0.14828E-04   -0.26364E-06    53   0.434E-03    0.108E-03
RMM:  11    -0.873797627776E+02   -0.21990E-04   -0.27238E-06    56   0.421E-03    0.800E-04
RMM:  12    -0.873797724976E+02   -0.97199E-05   -0.86773E-07    46   0.279E-03    0.519E-04
RMM:  13    -0.873797776070E+02   -0.51095E-05   -0.37647E-07    40   0.184E-03    0.266E-04
RMM:  14    -0.873797817150E+02   -0.41079E-05   -0.25237E-07    43   0.162E-03    0.234E-04
RMM:  15    -0.873797830960E+02   -0.13810E-05   -0.85626E-08    34   0.111E-03    0.748E-05
RMM:  16    -0.873797844363E+02   -0.13404E-05   -0.28073E-08    30   0.989E-04    0.117E-04
RMM:  17    -0.873797850111E+02   -0.57476E-06   -0.55076E-09    26   0.855E-04
   5 F= -.87379785E+02 E0= -.87379785E+02  d E =-.457131E+00
 curvature:  -0.17 expect dE=-0.484E-01 dE for cont linesearch -0.784E-02
 ZBRENT: interpolating
 opt :   0.3207  next Energy=   -87.385721 (dE=-0.463E+00)
 bond charge predicted
       N       E                     dE             d eps       ncg     rms          rms(c)
DAV:   1    -0.873839351545E+02   -0.41507E-02   -0.48952E-01    88   0.339E+00    0.164E-01
RMM:   2    -0.873847281729E+02   -0.79302E-03   -0.14318E-02    72   0.540E-01    0.108E-01
RMM:   3    -0.873845344325E+02    0.19374E-03   -0.55860E-04    72   0.909E-02    0.580E-02
RMM:   4    -0.873845291283E+02    0.53042E-05   -0.17302E-04    72   0.436E-02    0.186E-02
RMM:   5    -0.873845373149E+02   -0.81866E-05   -0.30201E-05    71   0.181E-02    0.533E-03
RMM:   6    -0.873845427197E+02   -0.54049E-05   -0.46585E-06    57   0.748E-03    0.224E-03
RMM:   7    -0.873845462354E+02   -0.35157E-05   -0.90603E-07    49   0.365E-03    0.741E-04
RMM:   8    -0.873845526199E+02   -0.63844E-05   -0.50125E-07    47   0.250E-03    0.913E-04
RMM:   9    -0.873845589001E+02   -0.62802E-05   -0.57134E-07    41   0.221E-03    0.393E-04
RMM:  10    -0.873845633076E+02   -0.44075E-05   -0.34228E-07    39   0.168E-03    0.203E-04
RMM:  11    -0.873845662421E+02   -0.29345E-05   -0.20250E-07    41   0.140E-03    0.125E-04
RMM:  12    -0.873845678236E+02   -0.15815E-05   -0.60166E-08    31   0.101E-03    0.108E-04
RMM:  13    -0.873845694506E+02   -0.16269E-05   -0.43289E-08    31   0.998E-04    0.420E-05
RMM:  14    -0.873845701274E+02   -0.67687E-06   -0.20622E-08    28   0.919E-04
   6 F= -.87384570E+02 E0= -.87384570E+02  d E =-.461916E+00
 curvature:  -0.13 expect dE=-0.277E-01 dE for cont linesearch -0.185E-03
 ZBRENT: interpolating
 opt :   0.3260  next Energy=   -87.384727 (dE=-0.462E+00)
 bond charge predicted
       N       E                     dE             d eps       ncg     rms          rms(c)
DAV:   1    -0.873847190639E+02   -0.14961E-03   -0.10990E-02    84   0.510E-01    0.242E-02
RMM:   2    -0.873847368833E+02   -0.17819E-04   -0.32073E-04    72   0.795E-02    0.162E-02
RMM:   3    -0.873847323540E+02    0.45293E-05   -0.12139E-05    64   0.135E-02    0.878E-03
RMM:   4    -0.873847320148E+02    0.33924E-06   -0.41368E-06    56   0.705E-03
   7 F= -.87384732E+02 E0= -.87384732E+02  d E =-.462078E+00
 curvature:  -0.11 expect dE=-0.237E-01 dE for cont linesearch -0.398E-06
 trial: gam= 0.08180 g(F)=  0.211E+00 g(S)=  0.000E+00 ort = 0.300E-02 (trialstep = 0.865E+00)
 search vector abs. value=  0.229E+00
 bond charge predicted
       N       E                     dE             d eps       ncg     rms          rms(c)
DAV:   1    -0.873674208455E+02    0.17312E-01   -0.10078E+01    76   0.162E+01    0.100E+00
RMM:   2    -0.873812727573E+02   -0.13852E-01   -0.33573E-01    72   0.263E+00    0.662E-01
RMM:   3    -0.873744244714E+02    0.68483E-02   -0.26528E-02    72   0.591E-01    0.283E-01
RMM:   4    -0.873739726570E+02    0.45181E-03   -0.26106E-03    72   0.193E-01    0.126E-01
RMM:   5    -0.873739184198E+02    0.54237E-04   -0.11766E-03    72   0.119E-01    0.268E-02
RMM:   6    -0.873739671347E+02   -0.48715E-04   -0.97038E-05    75   0.357E-02    0.152E-02
RMM:   7    -0.873740924422E+02   -0.12531E-03   -0.80526E-05    72   0.278E-02    0.737E-03
RMM:   8    -0.873741591897E+02   -0.66747E-04   -0.14120E-05    66   0.115E-02    0.528E-03
RMM:   9    -0.873742968539E+02   -0.13766E-03   -0.26107E-05    69   0.163E-02    0.476E-03
RMM:  10    -0.873743486320E+02   -0.51778E-04   -0.75087E-06    63   0.819E-03    0.338E-03
RMM:  11    -0.873744036261E+02   -0.54994E-04   -0.99436E-06    65   0.984E-03    0.353E-03
RMM:  12    -0.873744350701E+02   -0.31444E-04   -0.29440E-06    54   0.532E-03    0.128E-03
RMM:  13    -0.873744514620E+02   -0.16392E-04   -0.18580E-06    50   0.428E-03    0.929E-04
RMM:  14    -0.873744625419E+02   -0.11080E-04   -0.58621E-07    45   0.239E-03    0.382E-04
RMM:  15    -0.873744681635E+02   -0.56217E-05   -0.32794E-07    40   0.175E-03    0.181E-04
RMM:  16    -0.873744717239E+02   -0.35604E-05   -0.16612E-07    40   0.133E-03    0.984E-05
RMM:  17    -0.873744736004E+02   -0.18764E-05   -0.64208E-08    34   0.102E-03    0.876E-05
RMM:  18    -0.873744749331E+02   -0.13327E-05   -0.14387E-08    26   0.861E-04    0.562E-05
RMM:  19    -0.873744755305E+02   -0.59742E-06   -0.19672E-09    25   0.870E-04
   8 F= -.87374476E+02 E0= -.87374476E+02  d E =0.102565E-01
 trial-energy change:    0.010256  1 .order    0.028859   -0.182925    0.240643
 step:   0.4306(harm=  0.3736)  dis= 0.02292  next Energy=   -87.432551 (dE=-0.478E-01)
 bond charge predicted
       N       E                     dE             d eps       ncg     rms          rms(c)
DAV:   1    -0.874317775322E+02   -0.57303E-01   -0.25943E+00    80   0.813E+00    0.545E-01
RMM:   2    -0.874337389564E+02   -0.19614E-02   -0.83502E-02    72   0.135E+00    0.330E-01
RMM:   3    -0.874321825108E+02    0.15564E-02   -0.78129E-03    72   0.315E-01    0.137E-01
RMM:   4    -0.874320734135E+02    0.10910E-03   -0.49933E-04    72   0.840E-02    0.674E-02
RMM:   5    -0.874320782487E+02   -0.48353E-05   -0.40154E-04    72   0.685E-02    0.187E-02
RMM:   6    -0.874320991977E+02   -0.20949E-04   -0.11441E-04    72   0.377E-02    0.163E-02
RMM:   7    -0.874321226699E+02   -0.23472E-04   -0.67302E-05    70   0.260E-02    0.664E-03
RMM:   8    -0.874321470752E+02   -0.24405E-04   -0.70812E-06    59   0.951E-03    0.569E-03
RMM:   9    -0.874321746805E+02   -0.27605E-04   -0.17994E-05    64   0.140E-02    0.584E-03
RMM:  10    -0.874322058248E+02   -0.31144E-04   -0.62204E-06    64   0.777E-03    0.168E-03
RMM:  11    -0.874322153963E+02   -0.95716E-05   -0.12977E-06    48   0.386E-03    0.637E-04
RMM:  12    -0.874322342337E+02   -0.18837E-04   -0.15234E-06    51   0.342E-03    0.774E-04
RMM:  13    -0.874322392663E+02   -0.50327E-05   -0.48235E-07    41   0.212E-03    0.495E-04
RMM:  14    -0.874322441881E+02   -0.49218E-05   -0.34443E-07    46   0.196E-03    0.366E-04
RMM:  15    -0.874322465856E+02   -0.23975E-05   -0.15558E-07    38   0.128E-03    0.186E-04
RMM:  16    -0.874322484410E+02   -0.18554E-05   -0.81197E-08    36   0.115E-03    0.122E-04
RMM:  17    -0.874322494580E+02   -0.10171E-05   -0.99338E-09    26   0.893E-04    0.609E-05
RMM:  18    -0.874322503780E+02   -0.92000E-06   -0.14432E-08    28   0.946E-04
   9 F= -.87432250E+02 E0= -.87432250E+02  d E =-.475184E-01
 curvature:  -0.20 expect dE=-0.170E-01 dE for cont linesearch -0.384E-08
 trial: gam= 0.30673 g(F)=  0.852E-01 g(S)=  0.000E+00 ort =-0.664E-04 (trialstep = 0.778E+00)
 search vector abs. value=  0.107E+00
 bond charge predicted
       N       E                     dE             d eps       ncg     rms          rms(c)
DAV:   1    -0.874223149604E+02    0.99345E-02   -0.91271E+00    84   0.150E+01    0.649E-01
RMM:   2    -0.874355087472E+02   -0.13194E-01   -0.21794E-01    72   0.212E+00    0.387E-01
RMM:   3    -0.874332346810E+02    0.22741E-02   -0.46600E-03    72   0.283E-01    0.251E-01
RMM:   4    -0.874334520291E+02   -0.21735E-03   -0.81381E-03    72   0.298E-01    0.661E-02
RMM:   5    -0.874333968764E+02    0.55153E-04   -0.22878E-04    75   0.533E-02    0.405E-02
RMM:   6    -0.874334634138E+02   -0.66537E-04   -0.77959E-04    72   0.897E-02    0.383E-02
RMM:   7    -0.874334384057E+02    0.25008E-04   -0.28869E-04    72   0.590E-02    0.138E-02
RMM:   8    -0.874334863840E+02   -0.47978E-04   -0.29779E-05    67   0.193E-02    0.421E-03
RMM:   9    -0.874335643003E+02   -0.77916E-04   -0.42673E-05    68   0.207E-02    0.145E-02
RMM:  10    -0.874336090431E+02   -0.44743E-04   -0.29312E-05    67   0.183E-02    0.179E-03
RMM:  11    -0.874336403494E+02   -0.31306E-04   -0.52133E-06    61   0.754E-03    0.237E-03
RMM:  12    -0.874336720739E+02   -0.31724E-04   -0.20775E-06    53   0.407E-03    0.102E-03
RMM:  13    -0.874336852351E+02   -0.13161E-04   -0.75598E-07    46   0.262E-03    0.540E-04
RMM:  14    -0.874336962454E+02   -0.11010E-04   -0.59277E-07    43   0.231E-03    0.240E-04
RMM:  15    -0.874336998281E+02   -0.35827E-05   -0.24809E-07    43   0.161E-03    0.372E-04
RMM:  16    -0.874337025248E+02   -0.26967E-05   -0.10029E-07    33   0.108E-03    0.277E-04
RMM:  17    -0.874337038333E+02   -0.13085E-05   -0.55187E-08    34   0.105E-03    0.821E-05
RMM:  18    -0.874337047504E+02   -0.91712E-06   -0.26006E-08    31   0.100E-03
  10 F= -.87433705E+02 E0= -.87433705E+02  d E =-.145437E-02
 trial-energy change:   -0.001454  1 .order   -0.002882   -0.066323    0.060559
 step:   0.3937(harm=  0.4068)  dis= 0.01207  next Energy=   -87.448840 (dE=-0.166E-01)
 bond charge predicted
       N       E                     dE             d eps       ncg     rms          rms(c)
DAV:   1    -0.874461056932E+02   -0.12402E-01   -0.22301E+00    80   0.765E+00    0.308E-01
RMM:   2    -0.874491445795E+02   -0.30389E-02   -0.49203E-02    72   0.102E+00    0.188E-01
RMM:   3    -0.874486276063E+02    0.51697E-03   -0.11600E-03    72   0.138E-01    0.116E-01
RMM:   4    -0.874487014485E+02   -0.73842E-04   -0.13616E-03    72   0.124E-01    0.208E-02
RMM:   5    -0.874487151295E+02   -0.13681E-04   -0.42041E-05    71   0.217E-02    0.137E-02
RMM:   6    -0.874487499578E+02   -0.34828E-04   -0.62153E-05    71   0.262E-02    0.103E-02
RMM:   7    -0.874487528760E+02   -0.29182E-05   -0.14279E-05    66   0.139E-02    0.249E-03
RMM:   8    -0.874487748797E+02   -0.22004E-04   -0.22330E-06    52   0.529E-03    0.159E-03
RMM:   9    -0.874487992517E+02   -0.24372E-04   -0.40974E-06    60   0.536E-03    0.239E-03
RMM:  10    -0.874488161702E+02   -0.16919E-04   -0.30589E-06    55   0.514E-03    0.596E-04
RMM:  11    -0.874488258002E+02   -0.96300E-05   -0.11118E-06    48   0.338E-03    0.918E-04
RMM:  12    -0.874488312164E+02   -0.54162E-05   -0.65582E-07    42   0.232E-03    0.307E-04
RMM:  13    -0.874488342843E+02   -0.30679E-05   -0.37678E-07    46   0.198E-03    0.342E-04
RMM:  14    -0.874488359058E+02   -0.16216E-05   -0.14879E-07    36   0.120E-03    0.210E-04
RMM:  15    -0.874488372226E+02   -0.13168E-05   -0.84197E-08    37   0.117E-03    0.908E-05
RMM:  16    -0.874488378351E+02   -0.61249E-06   -0.45979E-09    25   0.823E-04
  11 F= -.87448838E+02 E0= -.87448838E+02  d E =-.165875E-01
 curvature:  -0.25 expect dE=-0.159E-01 dE for cont linesearch -0.209E-09
 trial: gam= 0.70599 g(F)=  0.626E-01 g(S)=  0.000E+00 ort =-0.937E-05 (trialstep = 0.647E+00)
 search vector abs. value=  0.116E+00
 bond charge predicted
       N       E                     dE             d eps       ncg     rms          rms(c)
DAV:   1    -0.874535664994E+02   -0.47293E-02   -0.50797E+00    80   0.115E+01    0.499E-01
RMM:   2    -0.874584389715E+02   -0.48725E-02   -0.95770E-02    72   0.144E+00    0.239E-01
RMM:   3    -0.874581516393E+02    0.28733E-03   -0.24029E-03    73   0.198E-01    0.146E-01
RMM:   4    -0.874584325266E+02   -0.28089E-03   -0.21265E-03    72   0.156E-01    0.378E-02
RMM:   5    -0.874584400799E+02   -0.75533E-05   -0.88995E-05    73   0.339E-02    0.211E-02
RMM:   6    -0.874585198172E+02   -0.79737E-04   -0.18427E-04    72   0.457E-02    0.185E-02
RMM:   7    -0.874585444393E+02   -0.24622E-04   -0.76788E-05    69   0.302E-02    0.770E-03
RMM:   8    -0.874586002650E+02   -0.55826E-04   -0.14553E-05    66   0.134E-02    0.299E-03
RMM:   9    -0.874586617079E+02   -0.61443E-04   -0.15680E-05    66   0.125E-02    0.871E-03
RMM:  10    -0.874586995839E+02   -0.37876E-04   -0.16046E-05    66   0.130E-02    0.106E-03
RMM:  11    -0.874587251088E+02   -0.25525E-04   -0.22486E-06    51   0.463E-03    0.128E-03
RMM:  12    -0.874587403831E+02   -0.15274E-04   -0.12645E-06    48   0.314E-03    0.613E-04
RMM:  13    -0.874587458604E+02   -0.54772E-05   -0.40678E-07    41   0.185E-03    0.437E-04
RMM:  14    -0.874587519906E+02   -0.61302E-05   -0.39174E-07    43   0.198E-03    0.211E-04
RMM:  15    -0.874587539293E+02   -0.19387E-05   -0.11646E-07    37   0.122E-03    0.224E-04
RMM:  16    -0.874587557629E+02   -0.18336E-05   -0.35286E-08    30   0.978E-04    0.115E-04
RMM:  17    -0.874587563599E+02   -0.59699E-06   -0.64694E-09    26   0.913E-04
  12 F= -.87458756E+02 E0= -.87458756E+02  d E =-.991852E-02
 trial-energy change:   -0.009919  1 .order   -0.010005   -0.040452    0.020442
 step:   0.4284(harm=  0.4296)  dis= 0.01412  next Energy=   -87.462210 (dE=-0.134E-01)
 bond charge predicted
       N       E                     dE             d eps       ncg     rms          rms(c)
DAV:   1    -0.874616561168E+02   -0.29004E-02   -0.58211E-01    80   0.390E+00    0.162E-01
RMM:   2    -0.874621796836E+02   -0.52357E-03   -0.99239E-03    72   0.471E-01    0.804E-02
RMM:   3    -0.874621393822E+02    0.40301E-04   -0.28363E-04    73   0.664E-02    0.457E-02
RMM:   4    -0.874621489225E+02   -0.95403E-05   -0.15207E-04    72   0.423E-02    0.944E-03
RMM:   5    -0.874621508873E+02   -0.19648E-05   -0.81886E-06    62   0.979E-03    0.520E-03
RMM:   6    -0.874621658370E+02   -0.14950E-04   -0.84365E-06    65   0.101E-02    0.372E-03
RMM:   7    -0.874621718717E+02   -0.60347E-05   -0.22324E-06    52   0.536E-03    0.108E-03
RMM:   8    -0.874621879430E+02   -0.16071E-04   -0.13212E-06    48   0.341E-03    0.694E-04
RMM:   9    -0.874621980527E+02   -0.10110E-04   -0.10599E-06    46   0.292E-03    0.866E-04
RMM:  10    -0.874622060808E+02   -0.80281E-05   -0.97849E-07    43   0.273E-03    0.304E-04
RMM:  11    -0.874622112446E+02   -0.51638E-05   -0.56643E-07    44   0.211E-03    0.429E-04
RMM:  12    -0.874622130685E+02   -0.18239E-05   -0.24852E-07    38   0.140E-03    0.152E-04
RMM:  13    -0.874622144874E+02   -0.14189E-05   -0.11218E-07    37   0.117E-03    0.131E-04
RMM:  14    -0.874622156292E+02   -0.11418E-05   -0.40116E-08    29   0.935E-04    0.628E-05
RMM:  15    -0.874622161317E+02   -0.50248E-06   -0.78759E-09    26   0.886E-04
  13 F= -.87462216E+02 E0= -.87462216E+02  d E =-.133783E-01
 curvature:  -0.40 expect dE=-0.507E-02 dE for cont linesearch -0.232E-08
 trial: gam= 0.16791 g(F)=  0.128E-01 g(S)=  0.000E+00 ort =-0.260E-04 (trialstep = 0.603E+00)
 search vector abs. value=  0.160E-01
 bond charge predicted
       N       E                     dE             d eps       ncg     rms          rms(c)
DAV:   1    -0.874630052044E+02   -0.78958E-03   -0.23103E-01    88   0.273E+00    0.154E-01
RMM:   2    -0.874635287448E+02   -0.52354E-03   -0.93263E-03    72   0.474E-01    0.116E-01
RMM:   3    -0.874633487597E+02    0.17999E-03   -0.69481E-04    72   0.104E-01    0.534E-02
RMM:   4    -0.874633492978E+02   -0.53813E-06   -0.88105E-05    72   0.377E-02    0.220E-02
RMM:   5    -0.874633537374E+02   -0.44395E-05   -0.28562E-05    71   0.209E-02    0.415E-03
RMM:   6    -0.874633571763E+02   -0.34390E-05   -0.22976E-06    53   0.632E-03    0.209E-03
RMM:   7    -0.874633623136E+02   -0.51373E-05   -0.11155E-06    48   0.398E-03    0.124E-03
RMM:   8    -0.874633665429E+02   -0.42293E-05   -0.12085E-06    49   0.387E-03    0.122E-03
RMM:   9    -0.874633711634E+02   -0.46205E-05   -0.59378E-07    45   0.242E-03    0.439E-04
RMM:  10    -0.874633730785E+02   -0.19151E-05   -0.28849E-07    43   0.189E-03    0.349E-04
RMM:  11    -0.874633759056E+02   -0.28271E-05   -0.25354E-07    43   0.151E-03    0.291E-04
RMM:  12    -0.874633763413E+02   -0.43574E-06   -0.73841E-08    35   0.956E-04
  14 F= -.87463376E+02 E0= -.87463376E+02  d E =-.116021E-02
 trial-energy change:   -0.001160  1 .order   -0.001095   -0.007698    0.005508
 step:   0.3558(harm=  0.3515)  dis= 0.00668  next Energy=   -87.464501 (dE=-0.228E-02)
 bond charge predicted
       N       E                     dE             d eps       ncg     rms          rms(c)
DAV:   1    -0.874644266083E+02   -0.10507E-02   -0.38759E-02    96   0.113E+00    0.619E-02
RMM:   2    -0.874645318153E+02   -0.10521E-03   -0.16974E-03    72   0.200E-01    0.497E-02
RMM:   3    -0.874644971334E+02    0.34682E-04   -0.90447E-05    72   0.382E-02    0.267E-02
RMM:   4    -0.874644967917E+02    0.34175E-06   -0.37615E-05    71   0.238E-02    0.907E-03
RMM:   5    -0.874644968483E+02   -0.56596E-07   -0.55767E-06    62   0.903E-03
  15 F= -.87464497E+02 E0= -.87464497E+02  d E =-.228072E-02
 curvature:  -0.22 expect dE=-0.111E-02 dE for cont linesearch -0.136E-09
 trial: gam= 0.39435 g(F)=  0.502E-02 g(S)=  0.000E+00 ort = 0.314E-05 (trialstep = 0.554E+00)
 search vector abs. value=  0.751E-02
 bond charge predicted
       N       E                     dE             d eps       ncg     rms          rms(c)
DAV:   1    -0.874651217694E+02   -0.62498E-03   -0.35857E-01    80   0.310E+00    0.117E-01
RMM:   2    -0.874656890928E+02   -0.56732E-03   -0.77665E-03    72   0.428E-01    0.810E-02
RMM:   3    -0.874656035006E+02    0.85592E-04   -0.16932E-04    72   0.573E-02    0.493E-02
RMM:   4    -0.874656310384E+02   -0.27538E-04   -0.27880E-04    72   0.578E-02    0.103E-02
RMM:   5    -0.874656304798E+02    0.55864E-06   -0.13282E-05    63   0.135E-02    0.420E-03
RMM:   6    -0.874656314118E+02   -0.93205E-06   -0.55873E-07    48   0.331E-03
  16 F= -.87465631E+02 E0= -.87465631E+02  d E =-.113456E-02
 trial-energy change:   -0.001135  1 .order   -0.001132   -0.002778    0.000515
 step:   0.4671(harm=  0.4671)  dis= 0.00373  next Energy=   -87.465669 (dE=-0.117E-02)
 bond charge predicted
       N       E                     dE             d eps       ncg     rms          rms(c)
DAV:   1    -0.874656597006E+02   -0.29221E-04   -0.87107E-03    88   0.485E-01    0.183E-02
RMM:   2    -0.874656752746E+02   -0.15574E-04   -0.18483E-04    72   0.661E-02    0.128E-02
RMM:   3    -0.874656750793E+02    0.19525E-06   -0.41394E-06    60   0.904E-03    0.762E-03
RMM:   4    -0.874656790364E+02   -0.39571E-05   -0.62746E-06    60   0.906E-03    0.149E-03
RMM:   5    -0.874656802388E+02   -0.12024E-05   -0.29387E-07    47   0.245E-03    0.587E-04
RMM:   6    -0.874656813379E+02   -0.10990E-05   -0.54500E-08    36   0.113E-03    0.254E-04
RMM:   7    -0.874656824041E+02   -0.10663E-05   -0.29890E-08    31   0.934E-04    0.121E-04
RMM:   8    -0.874656831024E+02   -0.69829E-06   -0.12921E-08    26   0.847E-04
  17 F= -.87465683E+02 E0= -.87465683E+02  d E =-.118625E-02
 curvature:  -0.35 expect dE=-0.163E-02 dE for cont linesearch -0.336E-07
 trial: gam= 0.92445 g(F)=  0.465E-02 g(S)=  0.000E+00 ort = 0.269E-04 (trialstep = 0.362E+00)
 search vector abs. value=  0.111E-01
 bond charge predicted
       N       E                     dE             d eps       ncg     rms          rms(c)
DAV:   1    -0.874670418805E+02   -0.13595E-02   -0.15039E-01    88   0.211E+00    0.821E-02
RMM:   2    -0.874672174116E+02   -0.17553E-03   -0.26046E-03    72   0.259E-01    0.498E-02
RMM:   3    -0.874672050437E+02    0.12368E-04   -0.62959E-05    72   0.362E-02    0.276E-02
RMM:   4    -0.874672206324E+02   -0.15589E-04   -0.66224E-05    72   0.299E-02    0.469E-03
RMM:   5    -0.874672203980E+02    0.23441E-06   -0.11905E-06    48   0.481E-03
  18 F= -.87467220E+02 E0= -.87467220E+02  d E =-.153730E-02
 ZBRENT: can't locate minimum, use default step
 trial-energy change:   -0.001537  1 .order   -0.001544   -0.001694   -0.001394
 step:   1.4490(harm=  2.0462)  dis= 0.01397  next Energy=   -87.470467 (dE=-0.478E-02)
 bond charge predicted
       N       E                     dE             d eps       ncg     rms          rms(c)
DAV:   1    -0.874683511462E+02   -0.11305E-02   -0.13550E+00    80   0.633E+00    0.247E-01
RMM:   2    -0.874699723765E+02   -0.16212E-02   -0.23830E-02    72   0.783E-01    0.150E-01
RMM:   3    -0.874698554321E+02    0.11694E-03   -0.56826E-04    72   0.109E-01    0.840E-02
RMM:   4    -0.874700021134E+02   -0.14668E-03   -0.62423E-04    72   0.917E-02    0.149E-02
RMM:   5    -0.874700042244E+02   -0.21110E-05   -0.14256E-05    70   0.154E-02    0.771E-03
RMM:   6    -0.874700162156E+02   -0.11991E-04   -0.93906E-06    65   0.107E-02    0.354E-03
RMM:   7    -0.874700292448E+02   -0.13029E-04   -0.24710E-06    55   0.620E-03    0.211E-03
RMM:   8    -0.874700442450E+02   -0.15000E-04   -0.27748E-06    56   0.540E-03    0.190E-03
RMM:   9    -0.874700598359E+02   -0.15591E-04   -0.16436E-06    50   0.362E-03    0.138E-03
RMM:  10    -0.874700668926E+02   -0.70567E-05   -0.11080E-06    48   0.347E-03    0.518E-04
RMM:  11    -0.874700729785E+02   -0.60859E-05   -0.58605E-07    41   0.205E-03    0.434E-04
RMM:  12    -0.874700760123E+02   -0.30338E-05   -0.36485E-07    38   0.169E-03    0.178E-04
RMM:  13    -0.874700779033E+02   -0.18911E-05   -0.19653E-07    41   0.139E-03    0.181E-04
RMM:  14    -0.874700788980E+02   -0.99468E-06   -0.59649E-08    29   0.941E-04
  19 F= -.87470079E+02 E0= -.87470079E+02  d E =-.439580E-02
 curvature:  -2.13 expect dE=-0.187E-01 dE for cont linesearch -0.351E-03
 ZBRENT: increasing intervall
 opt :   3.6225  next Energy=   -87.467604 (dE=-0.192E-02)
 bond charge predicted
       N       E                     dE             d eps       ncg     rms          rms(c)
DAV:   1    -0.874602787155E+02    0.97992E-02   -0.54141E+00    80   0.127E+01    0.497E-01
RMM:   2    -0.874670253854E+02   -0.67467E-02   -0.97632E-02    72   0.158E+00    0.300E-01
RMM:   3    -0.874664988484E+02    0.52654E-03   -0.22598E-03    72   0.219E-01    0.170E-01
RMM:   4    -0.874671271001E+02   -0.62825E-03   -0.26871E-03    72   0.191E-01    0.327E-02
RMM:   5    -0.874671192450E+02    0.78551E-05   -0.65455E-05    72   0.334E-02    0.164E-02
RMM:   6    -0.874671467305E+02   -0.27486E-04   -0.48220E-05    72   0.247E-02    0.820E-03
RMM:   7    -0.874671753955E+02   -0.28665E-04   -0.15471E-05    69   0.156E-02    0.587E-03
RMM:   8    -0.874672016583E+02   -0.26263E-04   -0.11497E-05    66   0.119E-02    0.332E-03
RMM:   9    -0.874672440157E+02   -0.42357E-04   -0.56818E-06    61   0.697E-03    0.342E-03
RMM:  10    -0.874672620812E+02   -0.18066E-04   -0.45467E-06    58   0.725E-03    0.122E-03
RMM:  11    -0.874672752206E+02   -0.13139E-04   -0.12038E-06    50   0.317E-03    0.605E-04
RMM:  12    -0.874672829805E+02   -0.77600E-05   -0.73438E-07    41   0.228E-03    0.355E-04
RMM:  13    -0.874672875038E+02   -0.45232E-05   -0.44130E-07    43   0.187E-03    0.147E-04
RMM:  14    -0.874672894844E+02   -0.19807E-05   -0.20582E-07    38   0.130E-03    0.110E-04
RMM:  15    -0.874672911035E+02   -0.16191E-05   -0.85301E-08    31   0.106E-03    0.731E-05
RMM:  16    -0.874672921618E+02   -0.10583E-05   -0.31467E-08    29   0.999E-04    0.470E-05
RMM:  17    -0.874672928294E+02   -0.66759E-06   -0.42229E-09    25   0.912E-04
  20 F= -.87467293E+02 E0= -.87467293E+02  d E =-.160973E-02
 curvature:  14.99 expect dE= 0.860E+00 dE for cont linesearch  0.216E-01
 ZBRENT: bracketing found
 ZBRENT: interpolating
 opt :   1.9990  next Energy=   -87.470451 (dE=-0.477E-02)
 bond charge predicted
       N       E                     dE             d eps       ncg     rms          rms(c)
DAV:   1    -0.874667076978E+02    0.58446E-03   -0.30280E+00    80   0.948E+00    0.366E-01
RMM:   2    -0.874703305747E+02   -0.36229E-02   -0.51975E-02    72   0.116E+00    0.222E-01
RMM:   3    -0.874700685607E+02    0.26201E-03   -0.12666E-03    72   0.162E-01    0.122E-01
RMM:   4    -0.874703464586E+02   -0.27790E-03   -0.12453E-03    72   0.131E-01    0.190E-02
RMM:   5    -0.874703516054E+02   -0.51468E-05   -0.21574E-05    70   0.187E-02    0.112E-02
RMM:   6    -0.874703737479E+02   -0.22143E-04   -0.24153E-05    70   0.169E-02    0.451E-03
RMM:   7    -0.874703878201E+02   -0.14072E-04   -0.34165E-06    57   0.731E-03    0.229E-03
RMM:   8    -0.874704139132E+02   -0.26093E-04   -0.38139E-06    59   0.594E-03    0.217E-03
RMM:   9    -0.874704349389E+02   -0.21026E-04   -0.21708E-06    52   0.413E-03    0.122E-03
RMM:  10    -0.874704457420E+02   -0.10803E-04   -0.12617E-06    49   0.364E-03    0.699E-04
RMM:  11    -0.874704573444E+02   -0.11602E-04   -0.91907E-07    44   0.245E-03    0.388E-04
RMM:  12    -0.874704607519E+02   -0.34075E-05   -0.38097E-07    40   0.176E-03    0.218E-04
RMM:  13    -0.874704644098E+02   -0.36579E-05   -0.23215E-07    39   0.143E-03    0.168E-04
RMM:  14    -0.874704661028E+02   -0.16930E-05   -0.87932E-08    30   0.110E-03    0.664E-05
RMM:  15    -0.874704672916E+02   -0.11888E-05   -0.52483E-08    35   0.106E-03    0.857E-05
RMM:  16    -0.874704678084E+02   -0.51684E-06   -0.79870E-09    27   0.832E-04
  21 F= -.87470468E+02 E0= -.87470468E+02  d E =-.478471E-02
 curvature:  -0.26 expect dE=-0.419E-02 dE for cont linesearch -0.478E-07
 trial: gam= 3.46236 g(F)=  0.162E-01 g(S)=  0.000E+00 ort = 0.453E-04 (trialstep = 0.512E-01)
 search vector abs. value=  0.150E+00
 bond charge predicted
       N       E                     dE             d eps       ncg     rms          rms(c)
DAV:   1    -0.874712298427E+02   -0.76255E-03   -0.22831E-02    88   0.832E-01    0.361E-02
RMM:   2    -0.874712536559E+02   -0.23813E-04   -0.35982E-04    72   0.967E-02    0.223E-02
RMM:   3    -0.874712536224E+02    0.33481E-07   -0.10182E-05    71   0.152E-02    0.108E-02
RMM:   4    -0.874712553296E+02   -0.17073E-05   -0.67112E-06    62   0.103E-02    0.232E-03
RMM:   5    -0.874712552948E+02    0.34871E-07   -0.72062E-07    48   0.369E-03
  22 F= -.87471255E+02 E0= -.87471255E+02  d E =-.787486E-03
 ZBRENT: can't locate minimum, use default step
 trial-energy change:   -0.000787  1 .order   -0.000790   -0.000836   -0.000743
 step:   0.2048(harm=  0.4602)  dis= 0.00864  next Energy=   -87.474227 (dE=-0.376E-02)
 bond charge predicted
       N       E                     dE             d eps       ncg     rms          rms(c)
DAV:   1    -0.874728145099E+02   -0.15592E-02   -0.20544E-01    80   0.250E+00    0.108E-01
RMM:   2    -0.874730349509E+02   -0.22044E-03   -0.32452E-03    72   0.290E-01    0.670E-02
RMM:   3    -0.874730343211E+02    0.62978E-06   -0.92394E-05    72   0.456E-02    0.326E-02
RMM:   4    -0.874730531017E+02   -0.18781E-04   -0.61364E-05    72   0.308E-02    0.719E-03
RMM:   5    -0.874730543421E+02   -0.12404E-05   -0.76580E-06    63   0.107E-02    0.260E-03
RMM:   6    -0.874730567887E+02   -0.24466E-05   -0.54309E-07    48   0.335E-03    0.142E-03
RMM:   7    -0.874730620079E+02   -0.52192E-05   -0.79190E-07    48   0.308E-03    0.105E-03
RMM:   8    -0.874730654086E+02   -0.34007E-05   -0.10276E-06    48   0.382E-03    0.141E-03
RMM:   9    -0.874730700170E+02   -0.46085E-05   -0.52574E-07    45   0.220E-03    0.546E-04
RMM:  10    -0.874730718184E+02   -0.18013E-05   -0.32968E-07    47   0.191E-03    0.297E-04
RMM:  11    -0.874730738333E+02   -0.20149E-05   -0.15928E-07    35   0.115E-03    0.308E-04
RMM:  12    -0.874730751808E+02   -0.13475E-05   -0.10257E-07    33   0.110E-03    0.669E-05
RMM:  13    -0.874730760232E+02   -0.84239E-06   -0.56845E-08    31   0.972E-04
  23 F= -.87473076E+02 E0= -.87473076E+02  d E =-.260821E-02
 curvature:  -1.29 expect dE=-0.882E-02 dE for cont linesearch -0.720E-03
 ZBRENT: increasing intervall
 opt :   0.5119  next Energy=   -87.474241 (dE=-0.377E-02)
 bond charge predicted
       N       E                     dE             d eps       ncg     rms          rms(c)
DAV:   1    -0.874732127123E+02   -0.13753E-03   -0.82157E-01    80   0.499E+00    0.216E-01
RMM:   2    -0.874741259438E+02   -0.91323E-03   -0.13047E-02    72   0.582E-01    0.134E-01
RMM:   3    -0.874741234737E+02    0.24701E-05   -0.37075E-04    72   0.914E-02    0.658E-02
RMM:   4    -0.874742003022E+02   -0.76828E-04   -0.25509E-04    72   0.627E-02    0.148E-02
RMM:   5    -0.874742011106E+02   -0.80848E-06   -0.34183E-05    70   0.226E-02    0.540E-03
RMM:   6    -0.874742066469E+02   -0.55363E-05   -0.24966E-06    56   0.692E-03    0.293E-03
RMM:   7    -0.874742192425E+02   -0.12596E-04   -0.24778E-06    56   0.533E-03    0.197E-03
RMM:   8    -0.874742277408E+02   -0.84983E-05   -0.35619E-06    57   0.689E-03    0.290E-03
RMM:   9    -0.874742388336E+02   -0.11093E-04   -0.24188E-06    53   0.536E-03    0.591E-04
RMM:  10    -0.874742419024E+02   -0.30689E-05   -0.39684E-07    45   0.211E-03    0.336E-04
RMM:  11    -0.874742475599E+02   -0.56575E-05   -0.51080E-07    43   0.197E-03    0.309E-04
RMM:  12    -0.874742487290E+02   -0.11691E-05   -0.17629E-07    35   0.121E-03    0.266E-04
RMM:  13    -0.874742510057E+02   -0.22768E-05   -0.15578E-07    35   0.131E-03    0.124E-04
RMM:  14    -0.874742515084E+02   -0.50263E-06   -0.58572E-08    33   0.103E-03
  24 F= -.87474252E+02 E0= -.87474252E+02  d E =-.378370E-02
 curvature:  -2.08 expect dE=-0.229E-01 dE for cont linesearch -0.301E-04
 trial: gam= 0.77437 g(F)=  0.110E-01 g(S)=  0.000E+00 ort =-0.147E-02 (trialstep = 0.143E+00)
 search vector abs. value=  0.986E-01
 bond charge predicted
       N       E                     dE             d eps       ncg     rms          rms(c)
DAV:   1    -0.874751702601E+02   -0.91925E-03   -0.20252E-01    88   0.241E+00    0.925E-02
RMM:   2    -0.874754335165E+02   -0.26326E-03   -0.35573E-03    72   0.302E-01    0.581E-02
RMM:   3    -0.874754121403E+02    0.21376E-04   -0.80901E-05    72   0.417E-02    0.327E-02
RMM:   4    -0.874754313793E+02   -0.19239E-04   -0.10365E-04    72   0.370E-02    0.676E-03
RMM:   5    -0.874754306656E+02    0.71372E-06   -0.39400E-06    57   0.831E-03
  25 F= -.87475431E+02 E0= -.87475431E+02  d E =-.117916E-02
 trial-energy change:   -0.001179  1 .order   -0.001183   -0.001416   -0.000950
 step:   0.4352(harm=  0.4352)  dis= 0.01176  next Energy=   -87.476401 (dE=-0.215E-02)
 bond charge predicted
       N       E                     dE             d eps       ncg     rms          rms(c)
DAV:   1    -0.874752731424E+02    0.15824E-03   -0.84003E-01    80   0.491E+00    0.189E-01
RMM:   2    -0.874763722000E+02   -0.10991E-02   -0.14891E-02    72   0.617E-01    0.119E-01
RMM:   3    -0.874762847194E+02    0.87481E-04   -0.33589E-04    72   0.850E-02    0.672E-02
RMM:   4    -0.874763746103E+02   -0.89891E-04   -0.44221E-04    72   0.766E-02    0.143E-02
RMM:   5    -0.874763740804E+02    0.52986E-06   -0.19157E-05    69   0.179E-02    0.531E-03
RMM:   6    -0.874763803975E+02   -0.63171E-05   -0.11058E-06    49   0.441E-03    0.263E-03
RMM:   7    -0.874763906189E+02   -0.10221E-04   -0.17114E-06    51   0.452E-03    0.107E-03
RMM:   8    -0.874764015417E+02   -0.10923E-04   -0.20620E-06    52   0.492E-03    0.201E-03
RMM:   9    -0.874764070266E+02   -0.54848E-05   -0.68927E-07    46   0.275E-03    0.772E-04
RMM:  10    -0.874764115080E+02   -0.44814E-05   -0.68996E-07    48   0.280E-03    0.515E-04
RMM:  11    -0.874764146446E+02   -0.31366E-05   -0.28970E-07    38   0.145E-03    0.316E-04
RMM:  12    -0.874764172018E+02   -0.25573E-05   -0.25745E-07    42   0.154E-03    0.187E-04
RMM:  13    -0.874764180131E+02   -0.81131E-06   -0.63280E-08    29   0.930E-04
  26 F= -.87476418E+02 E0= -.87476418E+02  d E =-.216650E-02
 curvature:  -2.17 expect dE=-0.952E-02 dE for cont linesearch -0.505E-09
 trial: gam= 0.23293 g(F)=  0.439E-02 g(S)=  0.000E+00 ort =-0.479E-05 (trialstep = 0.202E+00)
 search vector abs. value=  0.973E-02
 bond charge predicted
       N       E                     dE             d eps       ncg     rms          rms(c)
DAV:   1    -0.874770983436E+02   -0.68114E-03   -0.39180E-02    88   0.110E+00    0.409E-02
RMM:   2    -0.874771607168E+02   -0.62373E-04   -0.85351E-04    72   0.149E-01    0.266E-02
RMM:   3    -0.874771529261E+02    0.77906E-05   -0.23749E-05    72   0.216E-02    0.157E-02
RMM:   4    -0.874771546770E+02   -0.17508E-05   -0.19928E-05    70   0.173E-02    0.343E-03
RMM:   5    -0.874771544309E+02    0.24610E-06   -0.99923E-07    48   0.412E-03
  27 F= -.87477154E+02 E0= -.87477154E+02  d E =-.736418E-03
 trial-energy change:   -0.000736  1 .order   -0.000739   -0.000885   -0.000594
 step:   0.6133(harm=  0.6133)  dis= 0.00622  next Energy=   -87.477763 (dE=-0.134E-02)
 bond charge predicted
       N       E                     dE             d eps       ncg     rms          rms(c)
DAV:   1    -0.874775052287E+02   -0.35055E-03   -0.16315E-01    88   0.224E+00    0.835E-02
RMM:   2    -0.874777659515E+02   -0.26072E-03   -0.35702E-03    72   0.305E-01    0.544E-02
RMM:   3    -0.874777312233E+02    0.34728E-04   -0.98800E-05    72   0.441E-02    0.322E-02
RMM:   4    -0.874777388646E+02   -0.76413E-05   -0.83528E-05    72   0.355E-02    0.710E-03
RMM:   5    -0.874777393701E+02   -0.50553E-06   -0.49966E-06    60   0.838E-03
  28 F= -.87477739E+02 E0= -.87477739E+02  d E =-.132136E-02
 curvature:  -0.68 expect dE=-0.322E-02 dE for cont linesearch -0.805E-08
 trial: gam= 1.09318 g(F)=  0.473E-02 g(S)=  0.000E+00 ort =-0.107E-04 (trialstep = 0.169E+00)
 search vector abs. value=  0.163E-01
 bond charge predicted
       N       E                     dE             d eps       ncg     rms          rms(c)
DAV:   1    -0.874783815216E+02   -0.64266E-03   -0.24788E-02    88   0.864E-01    0.349E-02
RMM:   2    -0.874784133179E+02   -0.31796E-04   -0.47716E-04    72   0.107E-01    0.213E-02
RMM:   3    -0.874784101192E+02    0.31987E-05   -0.13040E-05    71   0.161E-02    0.127E-02
RMM:   4    -0.874784107930E+02   -0.67381E-06   -0.11960E-05    68   0.140E-02    0.307E-03
RMM:   5    -0.874784132307E+02   -0.24377E-05   -0.12399E-06    49   0.435E-03    0.125E-03
RMM:   6    -0.874784158248E+02   -0.25941E-05   -0.45351E-07    47   0.226E-03    0.892E-04
RMM:   7    -0.874784203812E+02   -0.45564E-05   -0.58142E-07    48   0.255E-03    0.700E-04
RMM:   8    -0.874784236016E+02   -0.32203E-05   -0.51327E-07    43   0.209E-03    0.535E-04
RMM:   9    -0.874784277653E+02   -0.41638E-05   -0.48390E-07    41   0.179E-03    0.462E-04
RMM:  10    -0.874784292061E+02   -0.14408E-05   -0.24746E-07    41   0.148E-03    0.137E-04
RMM:  11    -0.874784303811E+02   -0.11750E-05   -0.72971E-08    29   0.979E-04    0.908E-05
RMM:  12    -0.874784320003E+02   -0.16192E-05   -0.10698E-07    35   0.111E-03    0.520E-05
RMM:  13    -0.874784323662E+02   -0.36592E-06   -0.18683E-08    27   0.870E-04
  29 F= -.87478432E+02 E0= -.87478432E+02  d E =-.692996E-03
 trial-energy change:   -0.000693  1 .order   -0.000677   -0.000798   -0.000556
 step:   0.3769(harm=  0.5587)  dis= 0.00547  next Energy=   -87.478803 (dE=-0.106E-02)
 bond charge predicted
       N       E                     dE             d eps       ncg     rms          rms(c)
DAV:   1    -0.874788825088E+02   -0.45051E-03   -0.37304E-02    88   0.106E+00    0.425E-02
RMM:   2    -0.874789330409E+02   -0.50532E-04   -0.71353E-04    72   0.131E-01    0.258E-02
RMM:   3    -0.874789295452E+02    0.34958E-05   -0.18790E-05    72   0.194E-02    0.153E-02
RMM:   4    -0.874789283596E+02    0.11855E-05   -0.16744E-05    70   0.166E-02    0.353E-03
RMM:   5    -0.874789280269E+02    0.33267E-06   -0.13686E-06    49   0.471E-03
  30 F= -.87478928E+02 E0= -.87478928E+02  d E =-.118866E-02
 curvature:  -0.76 expect dE=-0.163E-02 dE for cont linesearch -0.113E-03
 ZBRENT: increasing intervall
 opt :   0.7921  next Energy=   -87.478858 (dE=-0.112E-02)
 bond charge predicted
       N       E                     dE             d eps       ncg     rms          rms(c)
DAV:   1    -0.874786449683E+02    0.28339E-03   -0.14929E-01    88   0.212E+00    0.850E-02
RMM:   2    -0.874788452220E+02   -0.20025E-03   -0.28691E-03    72   0.262E-01    0.518E-02
RMM:   3    -0.874788291993E+02    0.16023E-04   -0.75914E-05    72   0.389E-02    0.308E-02
RMM:   4    -0.874788293196E+02   -0.12027E-06   -0.68534E-05    72   0.335E-02    0.725E-03
RMM:   5    -0.874788307212E+02   -0.14017E-05   -0.68101E-06    63   0.968E-03    0.289E-03
RMM:   6    -0.874788335310E+02   -0.28098E-05   -0.67679E-07    48   0.321E-03    0.182E-03
RMM:   7    -0.874788415496E+02   -0.80186E-05   -0.13722E-06    49   0.399E-03    0.101E-03
RMM:   8    -0.874788501677E+02   -0.86181E-05   -0.17216E-06    50   0.374E-03    0.131E-03
RMM:   9    -0.874788562746E+02   -0.61069E-05   -0.10908E-06    49   0.310E-03    0.334E-04
RMM:  10    -0.874788586933E+02   -0.24188E-05   -0.35982E-07    41   0.185E-03    0.332E-04
RMM:  11    -0.874788615312E+02   -0.28379E-05   -0.23070E-07    37   0.137E-03    0.133E-04
RMM:  12    -0.874788637560E+02   -0.22247E-05   -0.18251E-07    38   0.133E-03    0.122E-04
RMM:  13    -0.874788645806E+02   -0.82460E-06   -0.61283E-08    31   0.101E-03
  31 F= -.87478865E+02 E0= -.87478865E+02  d E =-.112521E-02
 curvature:   0.47 expect dE= 0.365E-02 dE for cont linesearch  0.103E-03
 ZBRENT: bracketing found
 ZBRENT: interpolating
 opt :   0.5646  next Energy=   -87.479074 (dE=-0.134E-02)
 bond charge predicted
       N       E                     dE             d eps       ncg     rms          rms(c)
DAV:   1    -0.874790164988E+02   -0.15274E-03   -0.44799E-02    88   0.116E+00    0.466E-02
RMM:   2    -0.874790770150E+02   -0.60516E-04   -0.85869E-04    72   0.144E-01    0.283E-02
RMM:   3    -0.874790739074E+02    0.31076E-05   -0.22526E-05    72   0.212E-02    0.168E-02
RMM:   4    -0.874790743852E+02   -0.47785E-06   -0.20150E-05    70   0.182E-02    0.388E-03
RMM:   5    -0.874790739951E+02    0.39007E-06   -0.16525E-06    50   0.512E-03
  32 F= -.87479074E+02 E0= -.87479074E+02  d E =-.133463E-02
 curvature:  -0.67 expect dE=-0.243E-02 dE for cont linesearch -0.853E-10
 trial: gam= 0.75578 g(F)=  0.363E-02 g(S)=  0.000E+00 ort =-0.144E-05 (trialstep = 0.248E+00)
 search vector abs. value=  0.130E-01
 bond charge predicted
       N       E                     dE             d eps       ncg     rms          rms(c)
DAV:   1    -0.874796667052E+02   -0.59232E-03   -0.74737E-02    88   0.149E+00    0.535E-02
RMM:   2    -0.874797758503E+02   -0.10915E-03   -0.14239E-03    72   0.189E-01    0.313E-02
RMM:   3    -0.874797709769E+02    0.48733E-05   -0.33317E-05    72   0.263E-02    0.186E-02
RMM:   4    -0.874797778078E+02   -0.68309E-05   -0.27404E-05    71   0.206E-02    0.389E-03
RMM:   5    -0.874797784786E+02   -0.67085E-06   -0.10556E-06    48   0.451E-03
  33 F= -.87479778E+02 E0= -.87479778E+02  d E =-.704483E-03
 trial-energy change:   -0.000704  1 .order   -0.000704   -0.000901   -0.000506
 step:   0.5672(harm=  0.5672)  dis= 0.00499  next Energy=   -87.480103 (dE=-0.103E-02)
 bond charge predicted
       N       E                     dE             d eps       ncg     rms          rms(c)
DAV:   1    -0.874799224309E+02   -0.14462E-03   -0.12338E-01    88   0.191E+00    0.690E-02
RMM:   2    -0.874801012638E+02   -0.17883E-03   -0.23620E-03    72   0.243E-01    0.403E-02
RMM:   3    -0.874800912595E+02    0.10004E-04   -0.55329E-05    72   0.338E-02    0.240E-02
RMM:   4    -0.874800998606E+02   -0.86011E-05   -0.45374E-05    72   0.265E-02    0.507E-03
RMM:   5    -0.874801007138E+02   -0.85318E-06   -0.18382E-06    50   0.584E-03
  34 F= -.87480101E+02 E0= -.87480101E+02  d E =-.102672E-02
 curvature:  -1.01 expect dE=-0.204E-02 dE for cont linesearch -0.106E-07
 trial: gam= 0.54932 g(F)=  0.202E-02 g(S)=  0.000E+00 ort = 0.117E-04 (trialstep = 0.312E+00)
 search vector abs. value=  0.594E-02
 bond charge predicted
       N       E                     dE             d eps       ncg     rms          rms(c)
DAV:   1    -0.874805627337E+02   -0.46287E-03   -0.52470E-02    88   0.126E+00    0.445E-02
RMM:   2    -0.874806377386E+02   -0.75005E-04   -0.96682E-04    72   0.159E-01    0.259E-02
RMM:   3    -0.874806352089E+02    0.25297E-05   -0.20663E-05    72   0.210E-02    0.158E-02
RMM:   4    -0.874806412234E+02   -0.60145E-05   -0.24117E-05    72   0.194E-02    0.338E-03
RMM:   5    -0.874806419803E+02   -0.75690E-06   -0.68396E-07    48   0.369E-03
  35 F= -.87480642E+02 E0= -.87480642E+02  d E =-.541267E-03
 trial-energy change:   -0.000541  1 .order   -0.000538   -0.000631   -0.000445
 step:   1.0573(harm=  1.0573)  dis= 0.00682  next Energy=   -87.481170 (dE=-0.107E-02)
 bond charge predicted
       N       E                     dE             d eps       ncg     rms          rms(c)
DAV:   1    -0.874807372730E+02   -0.96050E-04   -0.29912E-01    88   0.301E+00    0.106E-01
RMM:   2    -0.874811648435E+02   -0.42757E-03   -0.55304E-03    72   0.381E-01    0.619E-02
RMM:   3    -0.874811446832E+02    0.20160E-04   -0.11859E-04    72   0.503E-02    0.378E-02
RMM:   4    -0.874811676617E+02   -0.22978E-04   -0.13964E-04    72   0.464E-02    0.822E-03
RMM:   5    -0.874811679967E+02   -0.33499E-06   -0.46273E-06    60   0.912E-03
  36 F= -.87481168E+02 E0= -.87481168E+02  d E =-.106728E-02
 curvature:  -1.55 expect dE=-0.900E-02 dE for cont linesearch -0.332E-07
 trial: gam= 2.86138 g(F)=  0.580E-02 g(S)=  0.000E+00 ort = 0.113E-04 (trialstep = 0.503E-01)
 search vector abs. value=  0.545E-01
 bond charge predicted
       N       E                     dE             d eps       ncg     rms          rms(c)
DAV:   1    -0.874814387993E+02   -0.27114E-03   -0.10450E-02    88   0.551E-01    0.207E-02
RMM:   2    -0.874814538273E+02   -0.15028E-04   -0.18028E-04    72   0.657E-02    0.117E-02
RMM:   3    -0.874814554446E+02   -0.16173E-05   -0.40450E-06    58   0.916E-03    0.684E-03
RMM:   4    -0.874814599971E+02   -0.45525E-05   -0.40124E-06    58   0.811E-03    0.158E-03
RMM:   5    -0.874814624598E+02   -0.24627E-05   -0.38943E-07    48   0.263E-03    0.675E-04
RMM:   6    -0.874814654273E+02   -0.29675E-05   -0.22796E-07    42   0.162E-03    0.460E-04
RMM:   7    -0.874814705963E+02   -0.51690E-05   -0.39439E-07    46   0.194E-03    0.402E-04
RMM:   8    -0.874814727417E+02   -0.21454E-05   -0.25251E-07    40   0.149E-03    0.304E-04
RMM:   9    -0.874814758906E+02   -0.31489E-05   -0.26283E-07    40   0.142E-03    0.197E-04
RMM:  10    -0.874814765604E+02   -0.66982E-06   -0.76855E-08    31   0.995E-04
  37 F= -.87481477E+02 E0= -.87481477E+02  d E =-.308564E-03
 ZBRENT: can't locate minimum, use default step
 trial-energy change:   -0.000309  1 .order   -0.000283   -0.000293   -0.000273
 step:   0.2010(harm=  0.7397)  dis= 0.00430  next Energy=   -87.483326 (dE=-0.216E-02)
 bond charge predicted
       N       E                     dE             d eps       ncg     rms          rms(c)
DAV:   1    -0.874820660636E+02   -0.59017E-03   -0.93555E-02    88   0.165E+00    0.608E-02
RMM:   2    -0.874821901977E+02   -0.12413E-03   -0.15853E-03    72   0.195E-01    0.338E-02
RMM:   3    -0.874821908313E+02   -0.63358E-06   -0.34839E-05    72   0.265E-02    0.199E-02
RMM:   4    -0.874821964377E+02   -0.56064E-05   -0.31683E-05    71   0.220E-02    0.436E-03
RMM:   5    -0.874821962489E+02    0.18878E-06   -0.12320E-06    50   0.462E-03
  38 F= -.87482196E+02 E0= -.87482196E+02  d E =-.102825E-02
 curvature:  -1.35 expect dE=-0.424E-02 dE for cont linesearch -0.434E-03
 ZBRENT: increasing intervall
 opt :   0.5026  next Energy=   -87.483084 (dE=-0.192E-02)
 bond charge predicted
       N       E                     dE             d eps       ncg     rms          rms(c)
DAV:   1    -0.874825448664E+02   -0.34843E-03   -0.37434E-01    88   0.330E+00    0.122E-01
RMM:   2    -0.874830446244E+02   -0.49976E-03   -0.63811E-03    72   0.392E-01    0.678E-02
RMM:   3    -0.874830453240E+02   -0.69962E-06   -0.14031E-04    72   0.531E-02    0.401E-02
RMM:   4    -0.874830727717E+02   -0.27448E-04   -0.12995E-04    72   0.446E-02    0.905E-03
RMM:   5    -0.874830744208E+02   -0.16491E-05   -0.60901E-06    62   0.976E-03    0.364E-03
RMM:   6    -0.874830792223E+02   -0.48014E-05   -0.13466E-06    49   0.448E-03    0.187E-03
RMM:   7    -0.874830876400E+02   -0.84177E-05   -0.10170E-06    48   0.345E-03    0.901E-04
RMM:   8    -0.874830959991E+02   -0.83592E-05   -0.15275E-06    50   0.373E-03    0.133E-03
RMM:   9    -0.874831042409E+02   -0.82418E-05   -0.11374E-06    47   0.313E-03    0.425E-04
RMM:  10    -0.874831070381E+02   -0.27972E-05   -0.45400E-07    46   0.212E-03    0.566E-04
RMM:  11    -0.874831095967E+02   -0.25586E-05   -0.23182E-07    38   0.138E-03    0.232E-04
RMM:  12    -0.874831118472E+02   -0.22505E-05   -0.21494E-07    44   0.149E-03    0.251E-04
RMM:  13    -0.874831125787E+02   -0.73148E-06   -0.44299E-08    28   0.837E-04
  39 F= -.87483113E+02 E0= -.87483113E+02  d E =-.194458E-02
 curvature:  -2.75 expect dE=-0.446E-02 dE for cont linesearch -0.169E-03
 ZBRENT: increasing intervall
 opt :   1.1057  next Energy=   -87.482788 (dE=-0.162E-02)
 bond charge predicted
       N       E                     dE             d eps       ncg     rms          rms(c)
DAV:   1    -0.874805775754E+02    0.25343E-02   -0.14952E+00    80   0.659E+00    0.244E-01
RMM:   2    -0.874826049340E+02   -0.20274E-02   -0.25667E-02    72   0.785E-01    0.136E-01
RMM:   3    -0.874826295164E+02   -0.24582E-04   -0.55947E-04    72   0.106E-01    0.805E-02
RMM:   4    -0.874827467018E+02   -0.11719E-03   -0.54303E-04    72   0.911E-02    0.190E-02
RMM:   5    -0.874827460546E+02    0.64713E-06   -0.26580E-05    70   0.204E-02    0.740E-03
RMM:   6    -0.874827566365E+02   -0.10582E-04   -0.56218E-06    63   0.851E-03    0.382E-03
RMM:   7    -0.874827754475E+02   -0.18811E-04   -0.36507E-06    58   0.701E-03    0.239E-03
RMM:   8    -0.874827907041E+02   -0.15257E-04   -0.57529E-06    64   0.804E-03    0.344E-03
RMM:   9    -0.874828071127E+02   -0.16409E-04   -0.27994E-06    55   0.561E-03    0.893E-04
RMM:  10    -0.874828142002E+02   -0.70875E-05   -0.13579E-06    50   0.408E-03    0.127E-03
RMM:  11    -0.874828211579E+02   -0.69577E-05   -0.64994E-07    45   0.246E-03    0.442E-04
RMM:  12    -0.874828243681E+02   -0.32102E-05   -0.40350E-07    43   0.197E-03    0.250E-04
RMM:  13    -0.874828265342E+02   -0.21661E-05   -0.17484E-07    35   0.128E-03    0.156E-04
RMM:  14    -0.874828280311E+02   -0.14969E-05   -0.87377E-08    35   0.111E-03    0.838E-05
RMM:  15    -0.874828292859E+02   -0.12548E-05   -0.38527E-08    32   0.952E-04    0.309E-05
RMM:  16    -0.874828299606E+02   -0.67468E-06   -0.91027E-09    26   0.821E-04
  40 F= -.87482830E+02 E0= -.87482830E+02  d E =-.166196E-02
 curvature:   5.30 expect dE= 0.327E-01 dE for cont linesearch  0.720E-03
 ZBRENT: bracketing found
 ZBRENT: interpolating
 opt :   0.7448  next Energy=   -87.483334 (dE=-0.217E-02)
 bond charge predicted
       N       E                     dE             d eps       ncg     rms          rms(c)
DAV:   1    -0.874825362990E+02    0.29299E-03   -0.53557E-01    88   0.395E+00    0.145E-01
RMM:   2    -0.874832389384E+02   -0.70264E-03   -0.89848E-03    72   0.465E-01    0.803E-02
RMM:   3    -0.874832591935E+02   -0.20255E-04   -0.19494E-04    72   0.626E-02    0.469E-02
RMM:   4    -0.874832942960E+02   -0.35102E-04   -0.16838E-04    72   0.512E-02    0.931E-03
RMM:   5    -0.874832943573E+02   -0.61251E-07   -0.46896E-06    59   0.858E-03
  41 F= -.87483294E+02 E0= -.87483294E+02  d E =-.212636E-02
 curvature:  -1.63 expect dE=-0.378E-02 dE for cont linesearch -0.157E-09
 trial: gam= 0.42370 g(F)=  0.232E-02 g(S)=  0.000E+00 ort = 0.229E-05 (trialstep = 0.189E+00)
 search vector abs. value=  0.121E-01
 bond charge predicted
       N       E                     dE             d eps       ncg     rms          rms(c)
DAV:   1    -0.874835635525E+02   -0.26926E-03   -0.36085E-02    88   0.106E+00    0.408E-02
RMM:   2    -0.874836253440E+02   -0.61791E-04   -0.78175E-04    72   0.143E-01    0.237E-02
RMM:   3    -0.874836251601E+02    0.18385E-06   -0.18476E-05    72   0.200E-02    0.141E-02
RMM:   4    -0.874836340403E+02   -0.88802E-05   -0.17901E-05    70   0.166E-02    0.324E-03
RMM:   5    -0.874836369480E+02   -0.29077E-05   -0.10396E-06    49   0.414E-03    0.124E-03
RMM:   6    -0.874836395647E+02   -0.26167E-05   -0.34895E-07    48   0.230E-03    0.761E-04
RMM:   7    -0.874836433752E+02   -0.38104E-05   -0.25739E-07    43   0.181E-03    0.471E-04
RMM:   8    -0.874836465293E+02   -0.31542E-05   -0.22949E-07    41   0.153E-03    0.305E-04
RMM:   9    -0.874836498082E+02   -0.32789E-05   -0.23403E-07    40   0.149E-03    0.400E-04
RMM:  10    -0.874836512745E+02   -0.14662E-05   -0.16305E-07    43   0.134E-03    0.101E-04
RMM:  11    -0.874836520705E+02   -0.79595E-06   -0.33627E-08    27   0.822E-04
  42 F= -.87483652E+02 E0= -.87483652E+02  d E =-.357713E-03
 trial-energy change:   -0.000358  1 .order   -0.000325   -0.000439   -0.000211
 step:   0.2686(harm=  0.3648)  dis= 0.00284  next Energy=   -87.483699 (dE=-0.405E-03)
 bond charge predicted
       N       E                     dE             d eps       ncg     rms          rms(c)
DAV:   1    -0.874837115137E+02   -0.60239E-04   -0.64063E-03    88   0.446E-01    0.171E-02
RMM:   2    -0.874837219685E+02   -0.10455E-04   -0.14005E-04    72   0.607E-02    0.100E-02
RMM:   3    -0.874837215972E+02    0.37139E-06   -0.29556E-06    54   0.835E-03    0.603E-03
RMM:   4    -0.874837225250E+02   -0.92784E-06   -0.38586E-06    59   0.818E-03
  43 F= -.87483723E+02 E0= -.87483723E+02  d E =-.428168E-03
 curvature:  -0.67 expect dE=-0.419E-03 dE for cont linesearch -0.220E-04
 ZBRENT: increasing intervall
 opt :   0.4276  next Energy=   -87.483746 (dE=-0.452E-03)
 bond charge predicted
       N       E                     dE             d eps       ncg     rms          rms(c)
DAV:   1    -0.874836984507E+02    0.23146E-04   -0.25644E-02    88   0.893E-01    0.344E-02
RMM:   2    -0.874837401488E+02   -0.41698E-04   -0.56716E-04    72   0.122E-01    0.202E-02
RMM:   3    -0.874837377687E+02    0.23801E-05   -0.12994E-05    72   0.168E-02    0.122E-02
RMM:   4    -0.874837401019E+02   -0.23332E-05   -0.13109E-05    69   0.144E-02    0.284E-03
RMM:   5    -0.874837400915E+02    0.10380E-07   -0.77679E-07    49   0.368E-03
  44 F= -.87483740E+02 E0= -.87483740E+02  d E =-.445734E-03
 curvature:  -0.71 expect dE=-0.830E-03 dE for cont linesearch -0.829E-05
 ZBRENT: bracketing found
 ZBRENT: interpolating
 opt :   0.3683  next Energy=   -87.483751 (dE=-0.457E-03)
 bond charge predicted
       N       E                     dE             d eps       ncg     rms          rms(c)
DAV:   1    -0.874837455012E+02   -0.53993E-05   -0.35501E-03    84   0.332E-01    0.127E-02
RMM:   2    -0.874837519058E+02   -0.64046E-05   -0.76837E-05    72   0.450E-02    0.734E-03
RMM:   3    -0.874837520061E+02   -0.10033E-06   -0.15346E-06    49   0.618E-03    0.441E-03
RMM:   4    -0.874837531904E+02   -0.11842E-05   -0.22440E-06    53   0.638E-03    0.104E-03
RMM:   5    -0.874837534609E+02   -0.27050E-06   -0.18746E-07    48   0.214E-03
  45 F= -.87483753E+02 E0= -.87483753E+02  d E =-.459104E-03
 curvature:  -0.95 expect dE=-0.796E-03 dE for cont linesearch -0.204E-09
 trial: gam= 0.33862 g(F)=  0.835E-03 g(S)=  0.000E+00 ort = 0.161E-05 (trialstep = 0.225E+00)
 search vector abs. value=  0.222E-02
 bond charge predicted
       N       E                     dE             d eps       ncg     rms          rms(c)
DAV:   1    -0.874838995024E+02   -0.14631E-03   -0.59420E-03    84   0.443E-01    0.176E-02
RMM:   2    -0.874839086215E+02   -0.91192E-05   -0.12671E-04    72   0.591E-02    0.111E-02
RMM:   3    -0.874839079595E+02    0.66206E-06   -0.34317E-06    55   0.883E-03    0.633E-03
RMM:   4    -0.874839081413E+02   -0.18187E-06   -0.36209E-06    60   0.805E-03
  46 F= -.87483908E+02 E0= -.87483908E+02  d E =-.154680E-03
 trial-energy change:   -0.000155  1 .order   -0.000156   -0.000188   -0.000124
 step:   0.6600(harm=  0.6600)  dis= 0.00393  next Energy=   -87.484029 (dE=-0.276E-03)
 bond charge predicted
       N       E                     dE             d eps       ncg     rms          rms(c)
DAV:   1    -0.874839882594E+02   -0.80300E-04   -0.22235E-02    88   0.858E-01    0.343E-02
RMM:   2    -0.874840222815E+02   -0.34022E-04   -0.48159E-04    72   0.115E-01    0.219E-02
RMM:   3    -0.874840190023E+02    0.32791E-05   -0.14472E-05    72   0.174E-02    0.125E-02
RMM:   4    -0.874840199761E+02   -0.97376E-06   -0.11537E-05    70   0.138E-02    0.313E-03
RMM:   5    -0.874840200487E+02   -0.72572E-07   -0.11793E-06    49   0.429E-03
  47 F= -.87484020E+02 E0= -.87484020E+02  d E =-.266588E-03
 curvature:  -0.88 expect dE=-0.110E-02 dE for cont linesearch -0.108E-07
 trial: gam= 1.50598 g(F)=  0.125E-02 g(S)=  0.000E+00 ort =-0.523E-05 (trialstep = 0.111E+00)
 search vector abs. value=  0.628E-02
 bond charge predicted
       N       E                     dE             d eps       ncg     rms          rms(c)
DAV:   1    -0.874841471616E+02   -0.12719E-03   -0.41321E-03    84   0.357E-01    0.139E-02
RMM:   2    -0.874841519892E+02   -0.48275E-05   -0.66217E-05    72   0.411E-02    0.778E-03
RMM:   3    -0.874841523056E+02   -0.31638E-06   -0.14190E-06    49   0.581E-03    0.436E-03
RMM:   4    -0.874841533678E+02   -0.10622E-05   -0.16761E-06    50   0.553E-03    0.942E-04
RMM:   5    -0.874841541594E+02   -0.79161E-06   -0.20046E-07    46   0.208E-03
  48 F= -.87484154E+02 E0= -.87484154E+02  d E =-.134111E-03
 ZBRENT: can't locate minimum, use default step
 trial-energy change:   -0.000134  1 .order   -0.000133   -0.000137   -0.000128
 step:   0.4422(harm=  1.6972)  dis= 0.00421  next Energy=   -87.485073 (dE=-0.105E-02)
 bond charge predicted
       N       E                     dE             d eps       ncg     rms          rms(c)
DAV:   1    -0.874844451359E+02   -0.29177E-03   -0.37199E-02    88   0.107E+00    0.415E-02
RMM:   2    -0.874844888699E+02   -0.43734E-04   -0.59752E-04    72   0.124E-01    0.231E-02
RMM:   3    -0.874844891206E+02   -0.25071E-06   -0.14575E-05    72   0.174E-02    0.129E-02
RMM:   4    -0.874844910387E+02   -0.19181E-05   -0.12097E-05    69   0.137E-02    0.261E-03
RMM:   5    -0.874844918506E+02   -0.81195E-06   -0.50766E-07    48   0.313E-03
  49 F= -.87484492E+02 E0= -.87484492E+02  d E =-.471802E-03
 curvature:  -1.61 expect dE=-0.130E-02 dE for cont linesearch -0.212E-03
 ZBRENT: increasing intervall
 opt :   1.1055  next Energy=   -87.484929 (dE=-0.909E-03)
 bond charge predicted
       N       E                     dE             d eps       ncg     rms          rms(c)
DAV:   1    -0.874847196490E+02   -0.22861E-03   -0.14892E-01    80   0.214E+00    0.832E-02
RMM:   2    -0.874848979442E+02   -0.17830E-03   -0.24029E-03    72   0.248E-01    0.463E-02
RMM:   3    -0.874848985090E+02   -0.56483E-06   -0.58374E-05    72   0.349E-02    0.260E-02
RMM:   4    -0.874849091310E+02   -0.10622E-04   -0.49074E-05    72   0.275E-02    0.531E-03
RMM:   5    -0.874849124235E+02   -0.32926E-05   -0.21700E-06    51   0.612E-03    0.231E-03
RMM:   6    -0.874849176873E+02   -0.52638E-05   -0.93916E-07    48   0.376E-03    0.129E-03
RMM:   7    -0.874849254630E+02   -0.77756E-05   -0.70695E-07    46   0.283E-03    0.695E-04
RMM:   8    -0.874849326140E+02   -0.71511E-05   -0.81816E-07    47   0.264E-03    0.709E-04
RMM:   9    -0.874849398913E+02   -0.72772E-05   -0.84460E-07    44   0.231E-03    0.415E-04
RMM:  10    -0.874849417090E+02   -0.18178E-05   -0.30656E-07    43   0.169E-03    0.260E-04
RMM:  11    -0.874849442368E+02   -0.25278E-05   -0.17150E-07    36   0.119E-03    0.119E-04
RMM:  12    -0.874849456886E+02   -0.14518E-05   -0.95485E-08    31   0.106E-03    0.657E-05
RMM:  13    -0.874849469099E+02   -0.12212E-05   -0.50304E-08    31   0.103E-03    0.515E-05
RMM:  14    -0.874849476051E+02   -0.69523E-06   -0.15547E-08    28   0.919E-04
  50 F= -.87484948E+02 E0= -.87484948E+02  d E =-.927556E-03
 curvature:  -3.32 expect dE=-0.309E-02 dE for cont linesearch -0.941E-04
 ZBRENT: increasing intervall
 opt :   2.4322  next Energy=   -87.484861 (dE=-0.841E-03)
 bond charge predicted
       N       E                     dE             d eps       ncg     rms          rms(c)
DAV:   1    -0.874840008497E+02    0.94606E-03   -0.59576E-01    80   0.428E+00    0.167E-01
RMM:   2    -0.874847314216E+02   -0.73057E-03   -0.96667E-03    72   0.497E-01    0.924E-02
RMM:   3    -0.874847445127E+02   -0.13091E-04   -0.23298E-04    72   0.699E-02    0.520E-02
RMM:   4    -0.874847865759E+02   -0.42063E-04   -0.19994E-04    72   0.554E-02    0.107E-02
RMM:   5    -0.874847925742E+02   -0.59983E-05   -0.98178E-06    68   0.123E-02    0.459E-03
RMM:   6    -0.874848030373E+02   -0.10463E-04   -0.22095E-06    51   0.573E-03    0.252E-03
RMM:   7    -0.874848185233E+02   -0.15486E-04   -0.18229E-06    50   0.469E-03    0.136E-03
RMM:   8    -0.874848333422E+02   -0.14819E-04   -0.23440E-06    52   0.472E-03    0.161E-03
RMM:   9    -0.874848464867E+02   -0.13144E-04   -0.16074E-06    50   0.355E-03    0.655E-04
RMM:  10    -0.874848515975E+02   -0.51107E-05   -0.72371E-07    47   0.279E-03    0.644E-04
RMM:  11    -0.874848562335E+02   -0.46360E-05   -0.37826E-07    39   0.170E-03    0.346E-04
RMM:  12    -0.874848593534E+02   -0.31199E-05   -0.32298E-07    45   0.176E-03    0.264E-04
RMM:  13    -0.874848608260E+02   -0.14727E-05   -0.10384E-07    31   0.102E-03    0.142E-04
RMM:  14    -0.874848619492E+02   -0.11231E-05   -0.63161E-08    33   0.102E-03    0.586E-05
RMM:  15    -0.874848629201E+02   -0.97096E-06   -0.18208E-08    29   0.890E-04
  51 F= -.87484863E+02 E0= -.87484863E+02  d E =-.842871E-03
 curvature:   3.06 expect dE= 0.118E-01 dE for cont linesearch  0.146E-03
 ZBRENT: bracketing found
 ZBRENT: interpolating
 opt :   1.6825  next Energy=   -87.485069 (dE=-0.105E-02)
 bond charge predicted
       N       E                     dE             d eps       ncg     rms          rms(c)
DAV:   1    -0.874847978346E+02    0.64115E-04   -0.19031E-01    80   0.242E+00    0.939E-02
RMM:   2    -0.874850256678E+02   -0.22783E-03   -0.30460E-03    72   0.279E-01    0.520E-02
RMM:   3    -0.874850289045E+02   -0.32367E-05   -0.73425E-05    72   0.393E-02    0.290E-02
RMM:   4    -0.874850379862E+02   -0.90817E-05   -0.59725E-05    72   0.304E-02    0.547E-03
RMM:   5    -0.874850396174E+02   -0.16311E-05   -0.19520E-06    50   0.591E-03    0.265E-03
RMM:   6    -0.874850434433E+02   -0.38259E-05   -0.13290E-06    48   0.453E-03    0.135E-03
RMM:   7    -0.874850487608E+02   -0.53175E-05   -0.60106E-07    47   0.282E-03    0.729E-04
RMM:   8    -0.874850546030E+02   -0.58422E-05   -0.66558E-07    46   0.243E-03    0.655E-04
RMM:   9    -0.874850612429E+02   -0.66400E-05   -0.68437E-07    45   0.223E-03    0.627E-04
RMM:  10    -0.874850633331E+02   -0.20902E-05   -0.29618E-07    41   0.176E-03    0.215E-04
RMM:  11    -0.874850657424E+02   -0.24093E-05   -0.14399E-07    34   0.121E-03    0.136E-04
RMM:  12    -0.874850674707E+02   -0.17283E-05   -0.10805E-07    33   0.113E-03    0.662E-05
RMM:  13    -0.874850683675E+02   -0.89672E-06   -0.41502E-08    29   0.977E-04
  52 F= -.87485068E+02 E0= -.87485068E+02  d E =-.104832E-02
 curvature:  -2.54 expect dE=-0.451E-02 dE for cont linesearch -0.423E-09
 trial: gam= 1.42110 g(F)=  0.177E-02 g(S)=  0.000E+00 ort =-0.102E-05 (trialstep = 0.185E+00)
 search vector abs. value=  0.144E-01
 bond charge predicted
       N       E                     dE             d eps       ncg     rms          rms(c)
DAV:   1    -0.874852719848E+02   -0.20451E-03   -0.35233E-02    88   0.105E+00    0.381E-02
RMM:   2    -0.874853211243E+02   -0.49140E-04   -0.65613E-04    72   0.133E-01    0.224E-02
RMM:   3    -0.874853189218E+02    0.22025E-05   -0.15007E-05    72   0.182E-02    0.130E-02
RMM:   4    -0.874853206096E+02   -0.16878E-05   -0.15509E-05    68   0.153E-02    0.248E-03
RMM:   5    -0.874853206278E+02   -0.18222E-07   -0.35840E-07    48   0.288E-03
  53 F= -.87485321E+02 E0= -.87485321E+02  d E =-.252260E-03
 trial-energy change:   -0.000252  1 .order   -0.000256   -0.000327   -0.000185
 step:   0.4251(harm=  0.4251)  dis= 0.00498  next Energy=   -87.485445 (dE=-0.377E-03)
 bond charge predicted
       N       E                     dE             d eps       ncg     rms          rms(c)
DAV:   1    -0.874853514865E+02   -0.30877E-04   -0.59891E-02    84   0.137E+00    0.496E-02
RMM:   2    -0.874854345524E+02   -0.83066E-04   -0.11220E-03    72   0.174E-01    0.293E-02
RMM:   3    -0.874854295011E+02    0.50513E-05   -0.25897E-05    72   0.239E-02    0.171E-02
RMM:   4    -0.874854328765E+02   -0.33754E-05   -0.26698E-05    72   0.200E-02    0.330E-03
RMM:   5    -0.874854340247E+02   -0.11482E-05   -0.61006E-07    48   0.358E-03    0.163E-03
RMM:   6    -0.874854363688E+02   -0.23441E-05   -0.49087E-07    48   0.285E-03    0.746E-04
RMM:   7    -0.874854390099E+02   -0.26411E-05   -0.23426E-07    46   0.180E-03    0.478E-04
RMM:   8    -0.874854418183E+02   -0.28084E-05   -0.23236E-07    41   0.153E-03    0.386E-04
RMM:   9    -0.874854449521E+02   -0.31338E-05   -0.24480E-07    44   0.151E-03    0.412E-04
RMM:  10    -0.874854462277E+02   -0.12756E-05   -0.14276E-07    39   0.124E-03    0.114E-04
RMM:  11    -0.874854473175E+02   -0.10899E-05   -0.50630E-08    29   0.883E-04    0.925E-05
RMM:  12    -0.874854487050E+02   -0.13875E-05   -0.46271E-08    29   0.939E-04    0.346E-05
RMM:  13    -0.874854491226E+02   -0.41755E-06   -0.10543E-08    26   0.877E-04
  54 F= -.87485449E+02 E0= -.87485449E+02  d E =-.380755E-03
 curvature:  -1.73 expect dE=-0.210E-02 dE for cont linesearch -0.167E-07
 trial: gam= 0.66161 g(F)=  0.121E-02 g(S)=  0.000E+00 ort = 0.118E-04 (trialstep = 0.233E+00)
 search vector abs. value=  0.755E-02
 bond charge predicted
       N       E                     dE             d eps       ncg     rms          rms(c)
DAV:   1    -0.874856617144E+02   -0.21301E-03   -0.21382E-02    84   0.808E-01    0.309E-02
RMM:   2    -0.874856880857E+02   -0.26371E-04   -0.35719E-04    72   0.964E-02    0.172E-02
RMM:   3    -0.874856893036E+02   -0.12179E-05   -0.96285E-06    70   0.139E-02    0.936E-03
RMM:   4    -0.874856899566E+02   -0.65299E-06   -0.48403E-06    62   0.930E-03
  55 F= -.87485690E+02 E0= -.87485690E+02  d E =-.240834E-03
 trial-energy change:   -0.000241  1 .order   -0.000245   -0.000284   -0.000207
 step:   0.8571(harm=  0.8571)  dis= 0.00683  next Energy=   -87.485972 (dE=-0.523E-03)
 bond charge predicted
       N       E                     dE             d eps       ncg     rms          rms(c)
DAV:   1    -0.874857276517E+02   -0.38348E-04   -0.15390E-01    80   0.217E+00    0.833E-02
RMM:   2    -0.874859175257E+02   -0.18987E-03   -0.25817E-03    72   0.259E-01    0.461E-02
RMM:   3    -0.874859256733E+02   -0.81476E-05   -0.69526E-05    72   0.374E-02    0.252E-02
RMM:   4    -0.874859360660E+02   -0.10393E-04   -0.35179E-05    72   0.246E-02    0.446E-03
RMM:   5    -0.874859393708E+02   -0.33048E-05   -0.12943E-06    49   0.470E-03    0.223E-03
RMM:   6    -0.874859450841E+02   -0.57133E-05   -0.89537E-07    48   0.363E-03    0.102E-03
RMM:   7    -0.874859516814E+02   -0.65973E-05   -0.59810E-07    48   0.254E-03    0.542E-04
RMM:   8    -0.874859569416E+02   -0.52602E-05   -0.55201E-07    44   0.208E-03    0.511E-04
RMM:   9    -0.874859627531E+02   -0.58115E-05   -0.60419E-07    42   0.200E-03    0.330E-04
RMM:  10    -0.874859645278E+02   -0.17747E-05   -0.28106E-07    40   0.157E-03    0.231E-04
RMM:  11    -0.874859667119E+02   -0.21840E-05   -0.14701E-07    32   0.117E-03    0.142E-04
RMM:  12    -0.874859680047E+02   -0.12929E-05   -0.10364E-07    34   0.113E-03    0.570E-05
RMM:  13    -0.874859688389E+02   -0.83422E-06   -0.33587E-08    30   0.937E-04
  56 F= -.87485969E+02 E0= -.87485969E+02  d E =-.519716E-03
 curvature:  -2.65 expect dE=-0.375E-02 dE for cont linesearch -0.456E-08
 trial: gam= 1.17647 g(F)=  0.141E-02 g(S)=  0.000E+00 ort =-0.360E-05 (trialstep = 0.228E+00)
 search vector abs. value=  0.119E-01
 bond charge predicted
       N       E                     dE             d eps       ncg     rms          rms(c)
DAV:   1    -0.874861785545E+02   -0.21055E-03   -0.29413E-02    84   0.957E-01    0.374E-02
RMM:   2    -0.874862187693E+02   -0.40215E-04   -0.52527E-04    72   0.117E-01    0.214E-02
RMM:   3    -0.874862190963E+02   -0.32701E-06   -0.14395E-05    72   0.173E-02    0.120E-02
RMM:   4    -0.874862203414E+02   -0.12450E-05   -0.93142E-06    69   0.126E-02    0.284E-03
RMM:   5    -0.874862201071E+02    0.23429E-06   -0.69638E-07    48   0.362E-03
  57 F= -.87486220E+02 E0= -.87486220E+02  d E =-.251268E-03
 trial-energy change:   -0.000251  1 .order   -0.000256   -0.000321   -0.000191
 step:   0.5649(harm=  0.5649)  dis= 0.00466  next Energy=   -87.486366 (dE=-0.398E-03)
 bond charge predicted
       N       E                     dE             d eps       ncg     rms          rms(c)
DAV:   1    -0.874862591512E+02   -0.38810E-04   -0.64455E-02    88   0.142E+00    0.554E-02
RMM:   2    -0.874863453539E+02   -0.86203E-04   -0.11557E-03    72   0.173E-01    0.317E-02
RMM:   3    -0.874863448254E+02    0.52850E-06   -0.31904E-05    72   0.258E-02    0.178E-02
RMM:   4    -0.874863496947E+02   -0.48693E-05   -0.20455E-05    72   0.187E-02    0.432E-03
RMM:   5    -0.874863512449E+02   -0.15502E-05   -0.16843E-06    49   0.539E-03    0.150E-03
RMM:   6    -0.874863534243E+02   -0.21794E-05   -0.42953E-07    48   0.264E-03    0.953E-04
RMM:   7    -0.874863578401E+02   -0.44158E-05   -0.38536E-07    46   0.226E-03    0.637E-04
RMM:   8    -0.874863608337E+02   -0.29935E-05   -0.28244E-07    42   0.169E-03    0.349E-04
RMM:   9    -0.874863653275E+02   -0.44938E-05   -0.37579E-07    41   0.172E-03    0.393E-04
RMM:  10    -0.874863671245E+02   -0.17970E-05   -0.23861E-07    41   0.141E-03    0.115E-04
RMM:  11    -0.874863686570E+02   -0.15325E-05   -0.94420E-08    30   0.103E-03    0.803E-05
RMM:  12    -0.874863699387E+02   -0.12817E-05   -0.89590E-08    33   0.106E-03    0.399E-05
RMM:  13    -0.874863705759E+02   -0.63727E-06   -0.16885E-08    27   0.907E-04
  58 F= -.87486371E+02 E0= -.87486371E+02  d E =-.401737E-03
 curvature:  -2.38 expect dE=-0.112E-02 dE for cont linesearch -0.230E-07
 trial: gam= 0.31442 g(F)=  0.472E-03 g(S)=  0.000E+00 ort = 0.107E-04 (trialstep = 0.295E+00)
 search vector abs. value=  0.165E-02
 bond charge predicted
       N       E                     dE             d eps       ncg     rms          rms(c)
DAV:   1    -0.874864547941E+02   -0.84855E-04   -0.89605E-03    84   0.539E-01    0.213E-02
RMM:   2    -0.874864688154E+02   -0.14021E-04   -0.19898E-04    72   0.740E-02    0.122E-02
RMM:   3    -0.874864679051E+02    0.91022E-06   -0.59917E-06    69   0.111E-02    0.681E-03
RMM:   4    -0.874864680563E+02   -0.15112E-06   -0.30684E-06    58   0.714E-03
  59 F= -.87486468E+02 E0= -.87486468E+02  d E =-.974803E-04
 trial-energy change:   -0.000097  1 .order   -0.000099   -0.000140   -0.000058
 step:   0.5021(harm=  0.5021)  dis= 0.00177  next Energy=   -87.486490 (dE=-0.119E-03)
 bond charge predicted
       N       E                     dE             d eps       ncg     rms          rms(c)
DAV:   1    -0.874864796434E+02   -0.11738E-04   -0.43887E-03    84   0.377E-01    0.150E-02
RMM:   2    -0.874864859784E+02   -0.63351E-05   -0.97876E-05    72   0.518E-02    0.861E-03
RMM:   3    -0.874864852158E+02    0.76265E-06   -0.26503E-06    51   0.774E-03    0.487E-03
RMM:   4    -0.874864851451E+02    0.70686E-07   -0.20797E-06    49   0.630E-03
  60 F= -.87486485E+02 E0= -.87486485E+02  d E =-.114569E-03
 curvature:  -0.87 expect dE=-0.426E-03 dE for cont linesearch -0.683E-08
 trial: gam= 1.04859 g(F)=  0.488E-03 g(S)=  0.000E+00 ort =-0.360E-05 (trialstep = 0.242E+00)
 search vector abs. value=  0.230E-02
 bond charge predicted
       N       E                     dE             d eps       ncg     rms          rms(c)
[...]
DAV:   1    -0.874883726086E+02   -0.11717E-03   -0.12208E-02    88   0.627E-01    0.262E-02
RMM:   2    -0.874883889863E+02   -0.16378E-04   -0.22247E-04    72   0.762E-02    0.140E-02
RMM:   3    -0.874883903411E+02   -0.13548E-05   -0.54559E-06    63   0.110E-02    0.765E-03
RMM:   4    -0.874883913936E+02   -0.10525E-05   -0.47290E-06    60   0.899E-03    0.224E-03
RMM:   5    -0.874883912568E+02    0.13681E-06   -0.69868E-07    48   0.358E-03
  80 F= -.87488391E+02 E0= -.87488391E+02  d E =-.135299E-03
 ZBRENT: can't locate minimum, use default step
 trial-energy change:   -0.000135  1 .order   -0.000137   -0.000150   -0.000123
 step:   0.7702(harm=  1.0993)  dis= 0.00479  next Energy=   -87.488683 (dE=-0.427E-03)
 bond charge predicted
       N       E                     dE             d eps       ncg     rms          rms(c)
DAV:   1    -0.874884622623E+02   -0.70869E-04   -0.10989E-01    80   0.188E+00    0.784E-02
RMM:   2    -0.874886053975E+02   -0.14314E-03   -0.19948E-03    72   0.228E-01    0.421E-02
RMM:   3    -0.874886172696E+02   -0.11872E-04   -0.50822E-05    72   0.330E-02    0.228E-02
RMM:   4    -0.874886307155E+02   -0.13446E-04   -0.38280E-05    72   0.249E-02    0.655E-03
RMM:   5    -0.874886323337E+02   -0.16182E-05   -0.63124E-06    63   0.956E-03    0.209E-03
RMM:   6    -0.874886341252E+02   -0.17915E-05   -0.33091E-07    48   0.242E-03    0.126E-03
RMM:   7    -0.874886393702E+02   -0.52450E-05   -0.92071E-07    48   0.342E-03    0.124E-03
RMM:   8    -0.874886427466E+02   -0.33764E-05   -0.10218E-06    49   0.346E-03    0.114E-03
RMM:   9    -0.874886472582E+02   -0.45116E-05   -0.52288E-07    45   0.223E-03    0.261E-04
RMM:  10    -0.874886490232E+02   -0.17650E-05   -0.24296E-07    39   0.147E-03    0.172E-04
RMM:  11    -0.874886513213E+02   -0.22981E-05   -0.16335E-07    33   0.123E-03    0.849E-05
RMM:  12    -0.874886523286E+02   -0.10073E-05   -0.12750E-07    39   0.111E-03    0.119E-04
RMM:  13    -0.874886528901E+02   -0.56145E-06   -0.15127E-08    25   0.790E-04
  81 F= -.87488653E+02 E0= -.87488653E+02  d E =-.396932E-03
 curvature:  -4.07 expect dE=-0.704E-03 dE for cont linesearch -0.395E-04
 ZBRENT: increasing intervall
 opt :   1.9254  next Energy=   -87.488498 (dE=-0.242E-03)
 bond charge predicted
       N       E                     dE             d eps       ncg     rms          rms(c)
DAV:   1    -0.874877379568E+02    0.91437E-03   -0.43935E-01    80   0.376E+00    0.157E-01
RMM:   2    -0.874883292766E+02   -0.59132E-03   -0.79434E-03    72   0.455E-01    0.841E-02
RMM:   3    -0.874883729690E+02   -0.43692E-04   -0.20310E-04    72   0.659E-02    0.456E-02
RMM:   4    -0.874884327393E+02   -0.59770E-04   -0.15103E-04    72   0.494E-02    0.130E-02
RMM:   5    -0.874884350107E+02   -0.22714E-05   -0.24956E-05    71   0.189E-02    0.416E-03
RMM:   6    -0.874884391104E+02   -0.40996E-05   -0.96134E-07    49   0.411E-03    0.245E-03
RMM:   7    -0.874884530078E+02   -0.13897E-04   -0.33365E-06    58   0.651E-03    0.254E-03
RMM:   8    -0.874884627070E+02   -0.96993E-05   -0.55103E-06    60   0.799E-03    0.341E-03
RMM:   9    -0.874884716121E+02   -0.89051E-05   -0.16511E-06    49   0.447E-03    0.967E-04
RMM:  10    -0.874884754617E+02   -0.38495E-05   -0.67339E-07    47   0.283E-03    0.278E-04
RMM:  11    -0.874884801776E+02   -0.47160E-05   -0.47819E-07    43   0.203E-03    0.364E-04
RMM:  12    -0.874884826518E+02   -0.24741E-05   -0.26296E-07    38   0.140E-03    0.279E-04
RMM:  13    -0.874884844329E+02   -0.17811E-05   -0.15552E-07    32   0.125E-03    0.975E-05
RMM:  14    -0.874884852880E+02   -0.85514E-06   -0.75832E-08    33   0.112E-03
  82 F= -.87488485E+02 E0= -.87488485E+02  d E =-.229330E-03
 curvature:  15.97 expect dE= 0.244E-01 dE for cont linesearch  0.720E-03
 ZBRENT: bracketing found
 ZBRENT: interpolating
 opt :   1.1361  next Energy=   -87.488699 (dE=-0.443E-03)
 bond charge predicted
       N       E                     dE             d eps       ncg     rms          rms(c)
DAV:   1    -0.874883477465E+02    0.13669E-03   -0.20500E-01    88   0.257E+00    0.107E-01
RMM:   2    -0.874886237063E+02   -0.27596E-03   -0.37604E-03    72   0.313E-01    0.577E-02
RMM:   3    -0.874886435766E+02   -0.19870E-04   -0.95719E-05    72   0.453E-02    0.316E-02
RMM:   4    -0.874886748056E+02   -0.31229E-04   -0.76373E-05    72   0.352E-02    0.941E-03
RMM:   5    -0.874886747087E+02    0.96866E-07   -0.13289E-05    68   0.137E-02    0.293E-03
RMM:   6    -0.874886762678E+02   -0.15591E-05   -0.50903E-07    48   0.311E-03    0.171E-03
RMM:   7    -0.874886817613E+02   -0.54934E-05   -0.15450E-06    50   0.464E-03    0.182E-03
RMM:   8    -0.874886858967E+02   -0.41354E-05   -0.22744E-06    50   0.525E-03    0.201E-03
RMM:   9    -0.874886908741E+02   -0.49774E-05   -0.74454E-07    47   0.295E-03    0.473E-04
RMM:  10    -0.874886935417E+02   -0.26675E-05   -0.38421E-07    43   0.197E-03    0.239E-04
RMM:  11    -0.874886964871E+02   -0.29454E-05   -0.19654E-07    36   0.129E-03    0.110E-04
RMM:  12    -0.874886982024E+02   -0.17153E-05   -0.12000E-07    33   0.112E-03    0.842E-05
RMM:  13    -0.874886996262E+02   -0.14238E-05   -0.63173E-08    32   0.102E-03    0.668E-05
RMM:  14    -0.874887001939E+02   -0.56771E-06   -0.28635E-08    29   0.903E-04
  83 F= -.87488700E+02 E0= -.87488700E+02  d E =-.444236E-03
 curvature:  -1.03 expect dE=-0.316E-03 dE for cont linesearch -0.668E-09
 trial: gam= 0.54910 g(F)=  0.307E-03 g(S)=  0.000E+00 ort = 0.208E-05 (trialstep = 0.381E+00)
 search vector abs. value=  0.231E-02
 bond charge predicted
       N       E                     dE             d eps       ncg     rms          rms(c)
DAV:   1    -0.874887211136E+02   -0.21487E-04   -0.24078E-02    88   0.873E-01    0.372E-02
RMM:   2    -0.874887547997E+02   -0.33686E-04   -0.51314E-04    72   0.116E-01    0.194E-02
RMM:   3    -0.874887559579E+02   -0.11581E-05   -0.13983E-05    71   0.170E-02    0.107E-02
RMM:   4    -0.874887593214E+02   -0.33635E-05   -0.72894E-06    66   0.110E-02    0.221E-03
RMM:   5    -0.874887593866E+02   -0.65194E-07   -0.31670E-07    48   0.270E-03
  84 F= -.87488759E+02 E0= -.87488759E+02  d E =-.591927E-04
 trial-energy change:   -0.000059  1 .order   -0.000061   -0.000118   -0.000004
 step:   0.3944(harm=  0.3944)  dis= 0.00142  next Energy=   -87.488761 (dE=-0.608E-04)
 bond charge predicted
       N       E                     dE             d eps       ncg     rms          rms(c)
DAV:   1    -0.874887596881E+02   -0.36666E-06   -0.30280E-05    84   0.311E-02    0.137E-03
RMM:   2    -0.874887599656E+02   -0.27756E-06   -0.69761E-07    48   0.448E-03    0.807E-04
RMM:   3    -0.874887602375E+02   -0.27187E-06   -0.60048E-08    42   0.136E-03    0.425E-04
RMM:   4    -0.874887606750E+02   -0.43744E-06   -0.19563E-08    29   0.936E-04
  85 F= -.87488761E+02 E0= -.87488761E+02  d E =-.604810E-04
 curvature:  -1.48 expect dE=-0.271E-03 dE for cont linesearch -0.135E-07
 trial: gam= 0.58102 g(F)=  0.183E-03 g(S)=  0.000E+00 ort = 0.460E-05 (trialstep = 0.384E+00)
 search vector abs. value=  0.968E-03
 bond charge predicted
       N       E                     dE             d eps       ncg     rms          rms(c)
DAV:   1    -0.874888037754E+02   -0.43538E-04   -0.98203E-03    96   0.558E-01    0.233E-02
RMM:   2    -0.874888195775E+02   -0.15802E-04   -0.20880E-04    72   0.752E-02    0.118E-02
RMM:   3    -0.874888205635E+02   -0.98601E-06   -0.42248E-06    60   0.101E-02    0.648E-03
RMM:   4    -0.874888221655E+02   -0.16021E-05   -0.34957E-06    60   0.801E-03    0.141E-03
RMM:   5    -0.874888222898E+02   -0.12424E-06   -0.20534E-07    48   0.216E-03
  86 F= -.87488822E+02 E0= -.87488822E+02  d E =-.616148E-04
 trial-energy change:   -0.000062  1 .order   -0.000062   -0.000071   -0.000052
 step:   1.3909(harm=  1.3909)  dis= 0.00305  next Energy=   -87.488890 (dE=-0.129E-03)
 bond charge predicted
       N       E                     dE             d eps       ncg     rms          rms(c)
DAV:   1    -0.874887639468E+02    0.58219E-04   -0.67637E-02    80   0.146E+00    0.612E-02
RMM:   2    -0.874888736663E+02   -0.10972E-03   -0.14361E-03    72   0.197E-01    0.310E-02
RMM:   3    -0.874888797370E+02   -0.60707E-05   -0.30461E-05    72   0.264E-02    0.169E-02
RMM:   4    -0.874888890727E+02   -0.93358E-05   -0.20561E-05    72   0.187E-02    0.349E-03
RMM:   5    -0.874888894485E+02   -0.37574E-06   -0.90338E-07    48   0.416E-03
  87 F= -.87488889E+02 E0= -.87488889E+02  d E =-.128774E-03
 curvature:  -3.62 expect dE=-0.246E-02 dE for cont linesearch -0.538E-07
 trial: gam= 3.70201 g(F)=  0.680E-03 g(S)=  0.000E+00 ort = 0.379E-05 (trialstep = 0.405E-01)
 search vector abs. value=  0.140E-01
 bond charge predicted
       N       E                     dE             d eps       ncg     rms          rms(c)
DAV:   1    -0.874889158187E+02   -0.26746E-04   -0.13943E-03    88   0.210E-01    0.892E-03
RMM:   2    -0.874889187439E+02   -0.29252E-05   -0.28983E-05    71   0.276E-02    0.459E-03
RMM:   3    -0.874889195597E+02   -0.81572E-06   -0.58473E-07    48   0.390E-03    0.251E-03
RMM:   4    -0.874889210979E+02   -0.15382E-05   -0.65172E-07    48   0.358E-03    0.722E-04
RMM:   5    -0.874889219800E+02   -0.88208E-06   -0.12354E-07    44   0.155E-03
  88 F= -.87488922E+02 E0= -.87488922E+02  d E =-.325315E-04
 ZBRENT: can't locate minimum, use default step
 trial-energy change:   -0.000033  1 .order   -0.000028   -0.000028   -0.000028
 step:   0.1622(harm=  6.7503)  dis= 0.00136  next Energy=   -87.491231 (dE=-0.234E-02)
 bond charge predicted
       N       E                     dE             d eps       ncg     rms          rms(c)
DAV:   1    -0.874889789367E+02   -0.57839E-04   -0.12414E-02    96   0.626E-01    0.264E-02
RMM:   2    -0.874889992922E+02   -0.20355E-04   -0.25243E-04    72   0.816E-02    0.133E-02
RMM:   3    -0.874890010511E+02   -0.17589E-05   -0.51661E-06    65   0.109E-02    0.731E-03
RMM:   4    -0.874890037201E+02   -0.26690E-05   -0.45154E-06    64   0.866E-03    0.204E-03
RMM:   5    -0.874890040985E+02   -0.37839E-06   -0.63924E-07    48   0.357E-03
  89 F= -.87489004E+02 E0= -.87489004E+02  d E =-.114650E-03
 curvature:  -2.44 expect dE=-0.130E-02 dE for cont linesearch -0.686E-04
 ZBRENT: increasing intervall
 opt :   0.4054  next Energy=   -87.489141 (dE=-0.252E-03)
 bond charge predicted
       N       E                     dE             d eps       ncg     rms          rms(c)
DAV:   1    -0.874890473324E+02   -0.43612E-04   -0.49642E-02    80   0.125E+00    0.529E-02
RMM:   2    -0.874891272154E+02   -0.79883E-04   -0.10085E-03    72   0.163E-01    0.266E-02
RMM:   3    -0.874891335205E+02   -0.63050E-05   -0.20841E-05    71   0.218E-02    0.146E-02
RMM:   4    -0.874891422865E+02   -0.87660E-05   -0.16208E-05    69   0.164E-02    0.389E-03
RMM:   5    -0.874891429253E+02   -0.63881E-06   -0.28061E-06    56   0.698E-03
  90 F= -.87489143E+02 E0= -.87489143E+02  d E =-.253477E-03
 curvature:  -4.88 expect dE=-0.182E-02 dE for cont linesearch -0.913E-04
 ZBRENT: increasing intervall
 opt :   0.8920  next Energy=   -87.489336 (dE=-0.446E-03)
 bond charge predicted
       N       E                     dE             d eps       ncg     rms          rms(c)
DAV:   1    -0.874889509833E+02    0.19130E-03   -0.19839E-01    76   0.250E+00    0.106E-01
RMM:   2    -0.874892693535E+02   -0.31837E-03   -0.40168E-03    72   0.326E-01    0.532E-02
RMM:   3    -0.874892962464E+02   -0.26893E-04   -0.82830E-05    72   0.433E-02    0.291E-02
RMM:   4    -0.874893315781E+02   -0.35332E-04   -0.63583E-05    72   0.325E-02    0.766E-03
RMM:   5    -0.874893338850E+02   -0.23069E-05   -0.11334E-05    70   0.135E-02    0.311E-03
RMM:   6    -0.874893353065E+02   -0.14215E-05   -0.97457E-07    48   0.449E-03    0.153E-03
RMM:   7    -0.874893405491E+02   -0.52426E-05   -0.10922E-06    48   0.417E-03    0.161E-03
RMM:   8    -0.874893412895E+02   -0.74039E-06   -0.36051E-07    48   0.256E-03
  91 F= -.87489341E+02 E0= -.87489341E+02  d E =-.451841E-03
 curvature: -10.30 expect dE=-0.288E-02 dE for cont linesearch -0.643E-04
 ZBRENT: increasing intervall
 opt :   1.8650  next Energy=   -87.489418 (dE=-0.529E-03)
 bond charge predicted
       N       E                     dE             d eps       ncg     rms          rms(c)
DAV:   1    -0.874878549546E+02    0.14856E-02   -0.79280E-01    72   0.500E+00    0.211E-01
RMM:   2    -0.874891428659E+02   -0.12879E-02   -0.15983E-02    72   0.650E-01    0.107E-01
RMM:   3    -0.874892391605E+02   -0.96295E-04   -0.33271E-04    72   0.868E-02    0.581E-02
RMM:   4    -0.874893704684E+02   -0.13131E-03   -0.25117E-04    72   0.640E-02    0.152E-02
RMM:   5    -0.874893755744E+02   -0.51060E-05   -0.44847E-05    72   0.268E-02    0.621E-03
RMM:   6    -0.874893793553E+02   -0.37809E-05   -0.46045E-06    63   0.900E-03    0.314E-03
RMM:   7    -0.874893926617E+02   -0.13306E-04   -0.25141E-06    53   0.604E-03    0.223E-03
RMM:   8    -0.874893949623E+02   -0.23006E-05   -0.99000E-07    48   0.417E-03    0.721E-04
RMM:   9    -0.874894028024E+02   -0.78402E-05   -0.73590E-07    49   0.268E-03    0.806E-04
RMM:  10    -0.874894058526E+02   -0.30501E-05   -0.25457E-07    39   0.151E-03    0.422E-04
RMM:  11    -0.874894102565E+02   -0.44040E-05   -0.47673E-07    48   0.224E-03    0.505E-04
RMM:  12    -0.874894109414E+02   -0.68487E-06   -0.11352E-07    34   0.105E-03
  92 F= -.87489411E+02 E0= -.87489411E+02  d E =-.521493E-03
 curvature: -12.37 expect dE=-0.128E-01 dE for cont linesearch -0.268E-04
 ZBRENT: bracketing found
 ZBRENT: interpolating
 opt :   1.5041  next Energy=   -87.489442 (dE=-0.553E-03)
 bond charge predicted
       N       E                     dE             d eps       ncg     rms          rms(c)
DAV:   1    -0.874892282476E+02    0.18201E-03   -0.10898E-01    88   0.186E+00    0.787E-02
RMM:   2    -0.874894054423E+02   -0.17719E-03   -0.22290E-03    72   0.243E-01    0.397E-02
RMM:   3    -0.874894183108E+02   -0.12868E-04   -0.45962E-05    72   0.324E-02    0.218E-02
RMM:   4    -0.874894384096E+02   -0.20099E-04   -0.37505E-05    72   0.248E-02    0.601E-03
RMM:   5    -0.874894387827E+02   -0.37305E-06   -0.70915E-06    67   0.108E-02
  93 F= -.87489439E+02 E0= -.87489439E+02  d E =-.549334E-03
 curvature: -14.48 expect dE=-0.892E-02 dE for cont linesearch -0.406E-06
 trial: gam= 1.02166 g(F)=  0.616E-03 g(S)=  0.000E+00 ort = 0.198E-04 (trialstep = 0.306E+00)
 search vector abs. value=  0.152E-01
 bond charge predicted
       N       E                     dE             d eps       ncg     rms          rms(c)
DAV:   1    -0.874893342820E+02    0.10413E-03   -0.11009E-01    84   0.187E+00    0.774E-02
RMM:   2    -0.874895169503E+02   -0.18267E-03   -0.23720E-03    72   0.252E-01    0.393E-02
RMM:   3    -0.874895224537E+02   -0.55033E-05   -0.46183E-05    72   0.327E-02    0.227E-02
RMM:   4    -0.874895417543E+02   -0.19301E-04   -0.48623E-05    72   0.277E-02    0.559E-03
RMM:   5    -0.874895412571E+02    0.49725E-06   -0.14419E-06    48   0.556E-03
  94 F= -.87489541E+02 E0= -.87489541E+02  d E =-.102474E-03
 trial-energy change:   -0.000102  1 .order   -0.000096   -0.000194    0.000002
 step:   0.3023(harm=  0.3017)  dis= 0.00263  next Energy=   -87.489541 (dE=-0.102E-03)
 bond charge predicted
       N       E                     dE             d eps       ncg     rms          rms(c)
DAV:   1    -0.874895415966E+02    0.15766E-06   -0.10758E-05    84   0.185E-02    0.169E-03
RMM:   2    -0.874895417758E+02   -0.17920E-06   -0.22741E-07    48   0.262E-03    0.748E-04
RMM:   3    -0.874895421293E+02   -0.35349E-06   -0.21291E-07    46   0.200E-03    0.361E-04
RMM:   4    -0.874895422559E+02   -0.12652E-06    0.00000E+00    24   0.680E-04
  95 F= -.87489542E+02 E0= -.87489542E+02  d E =-.103473E-03
 curvature:  -3.52 expect dE=-0.583E-03 dE for cont linesearch -0.290E-06
 ZBRENT: interpolating
 opt :   0.3049  next Energy=   -87.489541 (dE=-0.102E-03)
 bond charge predicted
       N       E                     dE             d eps       ncg     rms          rms(c)
DAV:   1    -0.874895429265E+02   -0.79718E-06   -0.81978E-06    88   0.161E-02    0.781E-04
RMM:   2    -0.874895430478E+02   -0.12125E-06   -0.16753E-07    47   0.223E-03    0.427E-04
RMM:   3    -0.874895431758E+02   -0.12806E-06   -0.70204E-09    28   0.912E-04    0.184E-04
RMM:   4    -0.874895433271E+02   -0.15124E-06   -0.43226E-08    35   0.105E-03
  96 F= -.87489543E+02 E0= -.87489543E+02  d E =-.104544E-03
 curvature:  -0.03 expect dE=-0.481E-05 dE for cont linesearch -0.209E-08
 trial: gam= 0.22008 g(F)=  0.167E-03 g(S)=  0.000E+00 ort = 0.333E-04 (trialstep = 0.305E+00)
 search vector abs. value=  0.920E-03
 bond charge predicted
       N       E                     dE             d eps       ncg     rms          rms(c)
DAV:   1    -0.874895753721E+02   -0.32196E-04   -0.71266E-03    80   0.473E-01    0.202E-02
RMM:   2    -0.874895860165E+02   -0.10644E-04   -0.15014E-04    72   0.624E-02    0.987E-03
RMM:   3    -0.874895864382E+02   -0.42167E-06   -0.27511E-06    55   0.825E-03    0.559E-03
RMM:   4    -0.874895874269E+02   -0.98872E-06   -0.28374E-06    56   0.719E-03
  97 F= -.87489587E+02 E0= -.87489587E+02  d E =-.440998E-04
 trial-energy change:   -0.000044  1 .order   -0.000045   -0.000053   -0.000037
 step:   0.9912(harm=  0.9912)  dis= 0.00217  next Energy=   -87.489630 (dE=-0.866E-04)
 bond charge predicted
       N       E                     dE             d eps       ncg     rms          rms(c)
DAV:   1    -0.874895614431E+02    0.24995E-04   -0.35948E-02    88   0.106E+00    0.453E-02
RMM:   2    -0.874896156441E+02   -0.54201E-04   -0.76032E-04    72   0.140E-01    0.221E-02
RMM:   3    -0.874896173698E+02   -0.17257E-05   -0.14947E-05    71   0.185E-02    0.125E-02
RMM:   4    -0.874896217275E+02   -0.43577E-05   -0.12816E-05    67   0.144E-02    0.300E-03
RMM:   5    -0.874896218041E+02   -0.76681E-07   -0.28409E-07    48   0.262E-03
  98 F= -.87489622E+02 E0= -.87489622E+02  d E =-.784771E-04
 curvature:  -2.61 expect dE=-0.970E-03 dE for cont linesearch -0.236E-06
 trial: gam= 2.32789 g(F)=  0.372E-03 g(S)=  0.000E+00 ort =-0.912E-05 (trialstep = 0.766E-01)
 search vector abs. value=  0.532E-02
 bond charge predicted
       N       E                     dE             d eps       ncg     rms          rms(c)
DAV:   1    -0.874896451768E+02   -0.23449E-04   -0.20131E-03    88   0.251E-01    0.109E-02
RMM:   2    -0.874896485288E+02   -0.33520E-05   -0.41710E-05    71   0.325E-02    0.605E-03
RMM:   3    -0.874896488095E+02   -0.28076E-06   -0.89564E-07    48   0.483E-03    0.339E-03
RMM:   4    -0.874896499042E+02   -0.10947E-05   -0.14257E-06    48   0.505E-03    0.110E-03
RMM:   5    -0.874896504117E+02   -0.50753E-06   -0.18319E-07    46   0.199E-03
  99 F= -.87489650E+02 E0= -.87489650E+02  d E =-.286076E-04
 ZBRENT: can't locate minimum, use default step
 trial-energy change:   -0.000029  1 .order   -0.000026   -0.000027   -0.000025
 step:   0.3064(harm=  1.3319)  dis= 0.00158  next Energy=   -87.489855 (dE=-0.233E-03)
 bond charge predicted
       N       E                     dE             d eps       ncg     rms          rms(c)
DAV:   1    -0.874896871150E+02   -0.37211E-04   -0.17824E-02    88   0.747E-01    0.327E-02
RMM:   2    -0.874897127927E+02   -0.25678E-04   -0.35710E-04    72   0.948E-02    0.173E-02
RMM:   3    -0.874897134600E+02   -0.66724E-06   -0.78908E-06    69   0.133E-02    0.965E-03
RMM:   4    -0.874897165480E+02   -0.30881E-05   -0.85450E-06    65   0.114E-02    0.291E-03
RMM:   5    -0.874897167818E+02   -0.23377E-06   -0.10196E-06    48   0.441E-03
 100 F= -.87489717E+02 E0= -.87489717E+02  d E =-.949777E-04
 curvature:  -3.36 expect dE=-0.904E-03 dE for cont linesearch -0.384E-04
 ZBRENT: increasing intervall
 opt :   0.7661  next Energy=   -87.489792 (dE=-0.170E-03)
