 vasp.5.4.4.18Apr17-6-g9f103f2a35 (build Jan 13 2019 13:55:41) complex          
  
 executed on             LinuxIFC date 2019.09.04  17:21:59
 running on   48 total cores
 distrk:  each k-point on   48 cores,    1 groups
 distr:  one band on NCORES_PER_BAND=  12 cores,    4 groups


--------------------------------------------------------------------------------------------------------


 INCAR:
 POTCAR:    PAW_PBE H 15Jun2001                   
 POTCAR:    PAW_PBE O 08Apr2002                   
 POTCAR:    PAW_PBE H 15Jun2001                   
  local pseudopotential read in
  atomic valenz-charges read in
  non local Contribution for L=           0  read in
    real space projection operators read in
  non local Contribution for L=           0  read in
    real space projection operators read in
  non local Contribution for L=           1  read in
    real space projection operators read in
    PAW grid and wavefunctions read in
 
   number of l-projection  operators is LMAX  =           3
   number of lm-projection operators is LMMAX =           5
 
 POTCAR:    PAW_PBE O 08Apr2002                   
  local pseudopotential read in
  partial core-charges read in
  partial kinetic energy density read in
  kinetic energy density of atom read in
  atomic valenz-charges read in
  non local Contribution for L=           0  read in
    real space projection operators read in
  non local Contribution for L=           0  read in
    real space projection operators read in
  non local Contribution for L=           1  read in
    real space projection operators read in
  non local Contribution for L=           1  read in
    real space projection operators read in
    PAW grid and wavefunctions read in
 
   number of l-projection  operators is LMAX  =           4
   number of lm-projection operators is LMMAX =           8
 

 ----------------------------------------------------------------------------- 
|                                                                             |
|  ADVICE TO THIS USER RUNNING 'VASP/VAMP'   (HEAR YOUR MASTER'S VOICE ...):  |
|                                                                             |
|      You have a (more or less) 'large supercell' and for larger cells       |
|      it might be more efficient to use real space projection opertators     |
|      So try LREAL= Auto  in the INCAR   file.                               |
|      Mind:          For very  accurate calculation you might also keep the  |
|      reciprocal projection scheme          (i.e. LREAL=.FALSE.)             |
|                                                                             |
 ----------------------------------------------------------------------------- 

  PAW_PBE H 15Jun2001                   :
 energy of atom  1       EATOM=  -12.4884
 kinetic energy error for atom=    0.0098 (will be added to EATOM!!)
  PAW_PBE O 08Apr2002                   :
 energy of atom  2       EATOM= -432.3788
 kinetic energy error for atom=    0.1156 (will be added to EATOM!!)
 
 
 POSCAR:  H  O                                   
  positions in direct lattice
  velocities in cartesian coordinates
 exchange correlation table for  LEXCH =        8
   RHO(1)=    0.500       N(1)  =     2000
   RHO(2)=  100.500       N(2)  =     4000
 


--------------------------------------------------------------------------------------------------------


 ion  position               nearest neighbor table
   1  0.516  0.484  0.424-  13 0.99
   2  0.582  0.519  0.445-  13 1.00
   3  0.510  0.515  0.577-  14 0.98
   4  0.508  0.442  0.551-  14 0.99
   5  0.608  0.487  0.543-  15 1.00
   6  0.677  0.471  0.509-  15 0.97
   7  0.417  0.442  0.479-  16 1.01
   8  0.447  0.372  0.455-  16 0.97
   9  0.335  0.497  0.539-  17 0.97
  10  0.392  0.539  0.506-  17 1.00
  11  0.496  0.568  0.477-  18 1.02
  12  0.469  0.632  0.516-  18 0.97
  13  0.539  0.527  0.422-   1 0.99   2 1.00
  14  0.532  0.471  0.584-   3 0.98   4 0.99
  15  0.641  0.503  0.510-   6 0.97   5 1.00
  16  0.460  0.416  0.471-   8 0.97   7 1.01
  17  0.360  0.503  0.497-   9 0.97  10 1.00
  18  0.467  0.584  0.516-  12 0.97  11 1.02
 
  LATTYP: Found a simple cubic cell.
 ALAT       =    20.0000000000
  
  Lattice vectors:
  
 A1 = (  20.0000000000,   0.0000000000,   0.0000000000)
 A2 = (   0.0000000000,  20.0000000000,   0.0000000000)
 A3 = (   0.0000000000,   0.0000000000,  20.0000000000)


Analysis of symmetry for initial positions (statically):
=====================================================================
 Subroutine PRICEL returns:
 Original cell was already a primitive cell.
 

 Routine SETGRP: Setting up the symmetry group for a 
 simple cubic supercell.


 Subroutine GETGRP returns: Found  1 space group operations
 (whereof  1 operations were pure point group operations)
 out of a pool of 48 trial point group operations.


The static configuration has the point symmetry C_1 .


Analysis of symmetry for dynamics (positions and initial velocities):
=====================================================================
 Subroutine PRICEL returns:
 Original cell was already a primitive cell.
 

 Routine SETGRP: Setting up the symmetry group for a 
 simple cubic supercell.


 Subroutine GETGRP returns: Found  1 space group operations
 (whereof  1 operations were pure point group operations)
 out of a pool of 48 trial point group operations.


The dynamic configuration has the point symmetry C_1 .


 Subroutine INISYM returns: Found  1 space group operations
 (whereof  1 operations are pure point group operations),
 and found     1 'primitive' translations

 
 
 KPOINTS: Monkhorst-Pack                          

Automatic generation of k-mesh.
Space group operators:
 irot       det(A)        alpha          n_x          n_y          n_z        tau_x        tau_y        tau_z
    1     1.000000     0.000000     1.000000     0.000000     0.000000     0.000000     0.000000     0.000000
 
 Subroutine IBZKPT returns following result:
 ===========================================
 
 Found      1 irreducible k-points:
 
 Following reciprocal coordinates:
            Coordinates               Weight
  0.000000  0.000000  0.000000      1.000000
 
 Following cartesian coordinates:
            Coordinates               Weight
  0.000000  0.000000  0.000000      1.000000
 


--------------------------------------------------------------------------------------------------------




 Dimension of arrays:
   k-points           NKPTS =      1   k-points in BZ     NKDIM =      1   number of bands    NBANDS=     36
   number of dos      NEDOS =    301   number of ions     NIONS =     18
   non local maximal  LDIM  =      4   non local SUM 2l+1 LMDIM =      8
   total plane-waves  NPLWV = 941192
   max r-space proj   IRMAX =      1   max aug-charges    IRDMAX=   1030
   dimension x,y,z NGX =    98 NGY =   98 NGZ =   98
   dimension x,y,z NGXF=   160 NGYF=  160 NGZF=  160
   support grid    NGXF=   160 NGYF=  160 NGZF=  160
   ions per type =              12   6
   NGX,Y,Z   is equivalent  to a cutoff of   8.15,  8.15,  8.15 a.u.
   NGXF,Y,Z  is equivalent  to a cutoff of  13.30, 13.30, 13.30 a.u.

 SYSTEM =  VaspCalc                                
 POSCAR =   H  O                                   

 Startparameter for this run:
   NWRITE =      1    write-flag & timer
   PREC   = med       normal or accurate (medium, high low for compatibility)
   ISTART =      0    job   : 0-new  1-cont  2-samecut
   ICHARG =      2    charge: 1-file 2-atom 10-const
   ISPIN  =      1    spin polarized calculation?
   LNONCOLLINEAR =      F non collinear calculations
   LSORBIT =      F    spin-orbit coupling
   INIWAV =      1    electr: 0-lowe 1-rand  2-diag
   LASPH  =      F    aspherical Exc in radial PAW
   METAGGA=      F    non-selfconsistent MetaGGA calc.

 Electronic Relaxation 1
   ENCUT  =  400.0 eV  29.40 Ry    5.42 a.u.  32.61 32.61 32.61*2*pi/ulx,y,z
   ENINI  =  400.0     initial cutoff
   ENAUG  =  605.4 eV  augmentation charge cutoff
   NELM   =    400;   NELMIN=  4; NELMDL=  0     # of ELM steps 
   EDIFF  = 0.1E-05   stopping-criterion for ELM
   LREAL  =      F    real-space projection
   NLSPLINE    = F    spline interpolate recip. space projectors
   LCOMPAT=      F    compatible to vasp.4.4
   GGA_COMPAT  = T    GGA compatible to vasp.4.4-vasp.4.6
   LMAXPAW     = -100 max onsite density
   LMAXMIX     =    2 max onsite mixed and CHGCAR
   VOSKOWN=      0    Vosko Wilk Nusair interpolation
   ROPT   =    0.00000   0.00000
 Ionic relaxation
   EDIFFG = -.1E-01   stopping-criterion for IOM
   NSW    =    100    number of steps for IOM
   NBLOCK =      1;   KBLOCK =    100    inner block; outer block 
   IBRION =      2    ionic relax: 0-MD 1-quasi-New 2-CG
   NFREE  =      1    steps in history (QN), initial steepest desc. (CG)
   ISIF   =      2    stress and relaxation
   IWAVPR =     11    prediction:  0-non 1-charg 2-wave 3-comb
   ISYM   =      2    0-nonsym 1-usesym 2-fastsym
   LCORR  =      T    Harris-Foulkes like correction to forces

   POTIM  = 0.5000    time-step for ionic-motion
   TEIN   =    0.0    initial temperature
   TEBEG  =    0.0;   TEEND  =   0.0 temperature during run
   SMASS  =  -3.00    Nose mass-parameter (am)
   estimated Nose-frequenzy (Omega)   =  0.10E-29 period in steps =****** mass=  -0.914E-26a.u.
   SCALEE = 1.0000    scale energy and forces
   NPACO  =    256;   APACO  = 16.0  distance and # of slots for P.C.
   PSTRESS=    0.0 pullay stress

  Mass of Ions in am
   POMASS =   1.00 16.00
  Ionic Valenz
   ZVAL   =   1.00  6.00
  Atomic Wigner-Seitz radii
   RWIGS  =  -1.00 -1.00
  virtual crystal weights 
   VCA    =   1.00  1.00
   NELECT =      48.0000    total number of electrons
   NUPDOWN=      -1.0000    fix difference up-down

 DOS related values:
   EMIN   =  10.00;   EMAX   =-10.00  energy-range for DOS
   EFERMI =   0.00
   ISMEAR =     0;   SIGMA  =   0.10  broadening in eV -4-tet -1-fermi 0-gaus

 Electronic relaxation 2 (details)
   IALGO  =     68    algorithm
   LDIAG  =      T    sub-space diagonalisation (order eigenvalues)
   LSUBROT=      F    optimize rotation matrix (better conditioning)
   TURBO    =      0    0=normal 1=particle mesh
   IRESTART =      0    0=no restart 2=restart with 2 vectors
   NREBOOT  =      0    no. of reboots
   NMIN     =      0    reboot dimension
   EREF     =   0.00    reference energy to select bands
   IMIX   =      4    mixing-type and parameters
     AMIX     =   0.40;   BMIX     =  1.00
     AMIX_MAG =   1.60;   BMIX_MAG =  1.00
     AMIN     =   0.10
     WC   =   100.;   INIMIX=   1;  MIXPRE=   1;  MAXMIX= -45

 Intra band minimization:
   WEIMIN = 0.0010     energy-eigenvalue tresh-hold
   EBREAK =  0.69E-08  absolut break condition
   DEPER  =   0.30     relativ break condition  

   TIME   =   0.40     timestep for ELM

  volume/ion in A,a.u.               =     444.44      2999.26
  Fermi-wavevector in a.u.,A,eV,Ry     =   0.297481  0.562157  1.204043  0.088495
  Thomas-Fermi vector in A             =   1.163009
 
 Write flags
   LWAVE        =      F    write WAVECAR
   LDOWNSAMPLE  =      F    k-point downsampling of WAVECAR
   LCHARG       =      F    write CHGCAR
   LVTOT        =      F    write LOCPOT, total local potential
   LVHAR        =      F    write LOCPOT, Hartree potential only
   LELF         =      F    write electronic localiz. function (ELF)
   LORBIT       =     11    0 simple, 1 ext, 2 COOP (PROOUT), +10 PAW based schemes


 Dipole corrections
   LMONO  =      F    monopole corrections only (constant potential shift)
   LDIPOL =      T    correct potential (dipole corrections)
   IDIPOL =      4    1-x, 2-y, 3-z, 4-all directions 
   EPSILON=  1.0000000 bulk dielectric constant

 Exchange correlation treatment:
   GGA     =    --    GGA type
   LEXCH   =     8    internal setting for exchange type
   VOSKOWN=      0    Vosko Wilk Nusair interpolation
   LHFCALC =     F    Hartree Fock is set to
   LHFONE  =     F    Hartree Fock one center treatment
   AEXX    =    0.0000 exact exchange contribution

 Linear response parameters
   LEPSILON=     F    determine dielectric tensor
   LRPA    =     F    only Hartree local field effects (RPA)
   LNABLA  =     F    use nabla operator in PAW spheres
   LVEL    =     F    velocity operator in full k-point grid
   LINTERFAST=   F  fast interpolation
   KINTER  =     0    interpolate to denser k-point grid
   CSHIFT  =0.1000    complex shift for real part using Kramers Kronig
   OMEGAMAX=  -1.0    maximum frequency
   DEG_THRESHOLD= 0.2000000E-02 threshold for treating states as degnerate
   RTIME   =   -0.100 relaxation time in fs
  (WPLASMAI=    0.000 imaginary part of plasma frequency in eV, 0.658/RTIME)
   DFIELD  = 0.0000000 0.0000000 0.0000000 field for delta impulse in time
 
 Orbital magnetization related:
   ORBITALMAG=     F  switch on orbital magnetization
   LCHIMAG   =     F  perturbation theory with respect to B field
   DQ        =  0.001000  dq finite difference perturbation B field
   LLRAUG    =     F  two centre corrections for induced B field



--------------------------------------------------------------------------------------------------------


 conjugate gradient relaxation of ions
 charge density and potential will be updated during run
 non-spin polarized calculation
 RMM-DIIS sequential band-by-band and
  variant of blocked Davidson during initial phase
 perform sub-space diagonalisation
    before iterative eigenvector-optimisation
 modified Broyden-mixing scheme, WC =      100.0
 initial mixing is a Kerker type mixing with AMIX =  0.4000 and BMIX =      1.0000
 Hartree-type preconditioning will be used
 using additional bands           12
 reciprocal scheme for non local part
 use partial core corrections
 calculate Harris-corrections to forces 
   (improved forces if not selfconsistent)
 use gradient corrections 
 use of overlap-Matrix (Vanderbilt PP)
 Gauss-broadening in eV      SIGMA  =   0.10


--------------------------------------------------------------------------------------------------------


  energy-cutoff  :      400.00
  volume of cell :     8000.00
      direct lattice vectors                 reciprocal lattice vectors
    20.000000000  0.000000000  0.000000000     0.050000000  0.000000000  0.000000000
     0.000000000 20.000000000  0.000000000     0.000000000  0.050000000  0.000000000
     0.000000000  0.000000000 20.000000000     0.000000000  0.000000000  0.050000000

  length of vectors
    20.000000000 20.000000000 20.000000000     0.050000000  0.050000000  0.050000000


 
 k-points in units of 2pi/SCALE and weight: Monkhorst-Pack                          
   0.00000000  0.00000000  0.00000000       1.000
 
 k-points in reciprocal lattice and weights: Monkhorst-Pack                          
   0.00000000  0.00000000  0.00000000       1.000
 
 position of ions in fractional coordinates (direct lattice) 
   0.51569616  0.48352365  0.42433942
   0.58224163  0.51852524  0.44529586
   0.51001356  0.51457228  0.57720330
   0.50819358  0.44197130  0.55146302
   0.60751962  0.48735010  0.54286836
   0.67718200  0.47076168  0.50898210
   0.41679604  0.44167314  0.47914081
   0.44737445  0.37230111  0.45528206
   0.33513582  0.49665029  0.53851060
   0.39246169  0.53949700  0.50572874
   0.49613074  0.56782355  0.47666844
   0.46872907  0.63211612  0.51627389
   0.53900991  0.52684579  0.42183980
   0.53169915  0.47092020  0.58376067
   0.64132328  0.50349016  0.50968156
   0.45959479  0.41649546  0.47131345
   0.35978428  0.50264648  0.49705112
   0.46695473  0.58358027  0.51572666
 
 position of ions in cartesian coordinates  (Angst):
  10.31392327  9.67047309  8.48678835
  11.64483268 10.37050478  8.90591718
  10.20027113 10.29144565 11.54406593
  10.16387167  8.83942607 11.02926034
  12.15039250  9.74700209 10.85736723
  13.54364008  9.41523359 10.17964209
   8.33592079  8.83346275  9.58281623
   8.94748895  7.44602214  9.10564128
   6.70271639  9.93300586 10.77021209
   7.84923378 10.78993999 10.11457479
   9.92261478 11.35647110  9.53336880
   9.37458137 12.64232240 10.32547784
  10.78019829 10.53691586  8.43679607
  10.63398297  9.41840392 11.67521345
  12.82646564 10.06980324 10.19363111
   9.19189579  8.32990911  9.42626904
   7.19568561 10.05292966  9.94102238
   9.33909459 11.67160539 10.31453318
 


--------------------------------------------------------------------------------------------------------


 k-point  1 :   0.0000 0.0000 0.0000  plane waves:  145165

 maximum and minimum number of plane-waves per node :     12106    12090

 maximum number of plane-waves:    145165
 maximum index in each direction: 
   IXMAX=   32   IYMAX=   32   IZMAX=   32
   IXMIN=  -32   IYMIN=  -32   IZMIN=  -32


 parallel 3D FFT for wavefunctions:
    minimum data exchange during FFTs selected (reduces bandwidth)
 parallel 3D FFT for charge:
    minimum data exchange during FFTs selected (reduces bandwidth)


 total amount of memory used by VASP MPI-rank0    52198. kBytes
=======================================================================

   base      :      30000. kBytes
   nonl-proj :       5035. kBytes
   fftplans  :       6155. kBytes
   grid      :       9257. kBytes
   one-center:          6. kBytes
   wavefun   :       1745. kBytes
 
     INWAV:  cpu time    0.0000: real time    0.0000
 Broyden mixing: mesh for mixing (old mesh)
   NGX = 65   NGY = 65   NGZ = 65
  (NGX  =160   NGY  =160   NGZ  =160)
  gives a total of 274625 points

 initial charge density was supplied:
 charge density of overlapping atoms calculated
 number of electron      48.0000000 magnetization 
 keeping initial charge density in first step


--------------------------------------------------------------------------------------------------------


 Maximum index for augmentation-charges           48 (set IRDMAX)


--------------------------------------------------------------------------------------------------------


 First call to EWALD:  gamma=   0.089
 Maximum number of real-space cells 3x 3x 3
 Maximum number of reciprocal cells 3x 3x 3

    FEWALD:  cpu time    0.0020: real time    0.0019


--------------------------------------- Iteration      1(   1)  ---------------------------------------


    POTLOK:  cpu time    0.0911: real time    0.0954
    SETDIJ:  cpu time    0.0016: real time    0.0016
     EDDAV:  cpu time    0.4235: real time    0.4236
       DOS:  cpu time    0.0005: real time    0.0005
    --------------------------------------------
      LOOP:  cpu time    0.5167: real time    0.5211

 eigenvalue-minimisations  :    88
 total energy-change (2. order) : 0.5189282E+03  (-0.8649874E+03)
 number of electron      48.0000000 magnetization 
 augmentation part       48.0000000 magnetization 

 DIPCOR: dipole corrections for dipol
 direction  1 min pos     1, direction  2 min pos     1, direction  3 min pos     1,
 dipolmoment           0.000003      0.000001     -0.000001 electrons x Angstroem
 Tr[quadrupol]        26.408057

 energy correction for charged system         0.000000 eV
 dipol+quadrupol energy correction           -0.000000 eV
 added-field ion interaction          0.000000 eV  (added to PSCEN)


 Free energy of the ion-electron system (eV)
  ---------------------------------------------------
  alpha Z        PSCENC =         1.00913082
  Ewald energy   TEWEN  =      3136.43382897
  -Hartree energ DENC   =     -5293.38270993
  -exchange      EXHF   =         0.00000000
  -V(xc)+E(xc)   XCENC  =       195.18231278
  PAW double counting   =      2104.90519057    -2115.80374798
  entropy T*S    EENTRO =        -0.11793238
  eigenvalues    EBANDS =      -252.62062352
  atomic energy  EATOM  =      2743.32276819
  Solvation  Ediel_sol  =         0.00000000
  ---------------------------------------------------
  free energy    TOTEN  =       518.92821753 eV

  energy without entropy =      519.04614991  energy(sigma->0) =      518.98718372


--------------------------------------------------------------------------------------------------------




--------------------------------------- Iteration      1(   2)  ---------------------------------------


     EDDAV:  cpu time    0.5875: real time    0.5877
       DOS:  cpu time    0.0007: real time    0.0007
    --------------------------------------------
      LOOP:  cpu time    0.5882: real time    0.5884

 eigenvalue-minimisations  :   136
 total energy-change (2. order) :-0.3071277E+03  (-0.2951792E+03)
 number of electron      48.0000000 magnetization 
 augmentation part       48.0000000 magnetization 

 DIPCOR: dipole corrections for dipol
 direction  1 min pos     1, direction  2 min pos     1, direction  3 min pos     1,
 dipolmoment           0.000003      0.000001     -0.000001 electrons x Angstroem
 Tr[quadrupol]        26.408057

 energy correction for charged system         0.000000 eV
 dipol+quadrupol energy correction           -0.000000 eV
 added-field ion interaction          0.000000 eV  (added to PSCEN)


 Free energy of the ion-electron system (eV)
  ---------------------------------------------------
  alpha Z        PSCENC =         1.00913082
  Ewald energy   TEWEN  =      3136.43382897
  -Hartree energ DENC   =     -5293.38270993
  -exchange      EXHF   =         0.00000000
  -V(xc)+E(xc)   XCENC  =       195.18231278
  PAW double counting   =      2104.90519057    -2115.80374798
  entropy T*S    EENTRO =        -0.11801219
  eigenvalues    EBANDS =      -559.74825216
  atomic energy  EATOM  =      2743.32276819
  Solvation  Ediel_sol  =         0.00000000
  ---------------------------------------------------
  free energy    TOTEN  =       211.80050908 eV

  energy without entropy =      211.91852127  energy(sigma->0) =      211.85951517


--------------------------------------------------------------------------------------------------------




--------------------------------------- Iteration      1(   3)  ---------------------------------------


     EDDAV:  cpu time    0.5172: real time    0.5173
       DOS:  cpu time    0.0005: real time    0.0005
    --------------------------------------------
      LOOP:  cpu time    0.5177: real time    0.5178

 eigenvalue-minimisations  :   112
 total energy-change (2. order) :-0.2553923E+03  (-0.2465043E+03)
 number of electron      48.0000000 magnetization 
 augmentation part       48.0000000 magnetization 

 DIPCOR: dipole corrections for dipol
 direction  1 min pos     1, direction  2 min pos     1, direction  3 min pos     1,
 dipolmoment           0.000003      0.000001     -0.000001 electrons x Angstroem
 Tr[quadrupol]        26.408057

 energy correction for charged system         0.000000 eV
 dipol+quadrupol energy correction           -0.000000 eV
 added-field ion interaction          0.000000 eV  (added to PSCEN)


 Free energy of the ion-electron system (eV)
  ---------------------------------------------------
  alpha Z        PSCENC =         1.00913082
  Ewald energy   TEWEN  =      3136.43382897
  -Hartree energ DENC   =     -5293.38270993
  -exchange      EXHF   =         0.00000000
  -V(xc)+E(xc)   XCENC  =       195.18231278
  PAW double counting   =      2104.90519057    -2115.80374798
  entropy T*S    EENTRO =        -0.00000000
  eigenvalues    EBANDS =      -815.25860863
  atomic energy  EATOM  =      2743.32276819
  Solvation  Ediel_sol  =         0.00000000
  ---------------------------------------------------
  free energy    TOTEN  =       -43.59183520 eV

  energy without entropy =      -43.59183520  energy(sigma->0) =      -43.59183520


--------------------------------------------------------------------------------------------------------




--------------------------------------- Iteration      1(   4)  ---------------------------------------


     EDDAV:  cpu time    0.3618: real time    0.3622
       DOS:  cpu time    0.0006: real time    0.0006
    --------------------------------------------
      LOOP:  cpu time    0.3625: real time    0.3628

 eigenvalue-minimisations  :    72
 total energy-change (2. order) :-0.5240024E+02  (-0.5232300E+02)
 number of electron      48.0000000 magnetization 
 augmentation part       48.0000000 magnetization 

 DIPCOR: dipole corrections for dipol
 direction  1 min pos     1, direction  2 min pos     1, direction  3 min pos     1,
 dipolmoment           0.000003      0.000001     -0.000001 electrons x Angstroem
 Tr[quadrupol]        26.408057

 energy correction for charged system         0.000000 eV
 dipol+quadrupol energy correction           -0.000000 eV
 added-field ion interaction          0.000000 eV  (added to PSCEN)


 Free energy of the ion-electron system (eV)
  ---------------------------------------------------
  alpha Z        PSCENC =         1.00913082
  Ewald energy   TEWEN  =      3136.43382897
  -Hartree energ DENC   =     -5293.38270993
  -exchange      EXHF   =         0.00000000
  -V(xc)+E(xc)   XCENC  =       195.18231278
  PAW double counting   =      2104.90519057    -2115.80374798
  entropy T*S    EENTRO =        -0.00000000
  eigenvalues    EBANDS =      -867.65884777
  atomic energy  EATOM  =      2743.32276819
  Solvation  Ediel_sol  =         0.00000000
  ---------------------------------------------------
  free energy    TOTEN  =       -95.99207434 eV

  energy without entropy =      -95.99207434  energy(sigma->0) =      -95.99207434


--------------------------------------------------------------------------------------------------------




--------------------------------------- Iteration      1(   5)  ---------------------------------------


     EDDAV:  cpu time    0.4461: real time    0.4466
       DOS:  cpu time    0.0002: real time    0.0002
    CHARGE:  cpu time    0.0266: real time    0.0266
    MIXING:  cpu time    0.0026: real time    0.0026
    --------------------------------------------
      LOOP:  cpu time    0.4756: real time    0.4761

 eigenvalue-minimisations  :    96
 total energy-change (2. order) :-0.9790855E+00  (-0.9782789E+00)
 number of electron      48.0001358 magnetization 
 augmentation part        4.8884594 magnetization 

 DIPCOR: dipole corrections for dipol
 direction  1 min pos     1, direction  2 min pos     1, direction  3 min pos     1,
 dipolmoment           0.000003      0.000001     -0.000001 electrons x Angstroem
 Tr[quadrupol]        26.408057

 energy correction for charged system         0.000000 eV
 dipol+quadrupol energy correction           -0.000000 eV
 added-field ion interaction          0.000000 eV  (added to PSCEN)


 Broyden mixing:
  rms(total) = 0.17894E+01    rms(broyden)= 0.17859E+01
  rms(prec ) = 0.19455E+01
  weight for this iteration     100.00

 Free energy of the ion-electron system (eV)
  ---------------------------------------------------
  alpha Z        PSCENC =         1.00913082
  Ewald energy   TEWEN  =      3136.43382897
  -Hartree energ DENC   =     -5293.38270993
  -exchange      EXHF   =         0.00000000
  -V(xc)+E(xc)   XCENC  =       195.18231278
  PAW double counting   =      2104.90519057    -2115.80374798
  entropy T*S    EENTRO =        -0.00000000
  eigenvalues    EBANDS =      -868.63793328
  atomic energy  EATOM  =      2743.32276819
  Solvation  Ediel_sol  =         0.00000000
  ---------------------------------------------------
  free energy    TOTEN  =       -96.97115985 eV

  energy without entropy =      -96.97115985  energy(sigma->0) =      -96.97115985


--------------------------------------------------------------------------------------------------------




--------------------------------------- Iteration      1(   6)  ---------------------------------------


    POTLOK:  cpu time    0.0783: real time    0.0788
    SETDIJ:  cpu time    0.0015: real time    0.0015
    EDDIAG:  cpu time    0.0713: real time    0.0714
  RMM-DIIS:  cpu time    0.3031: real time    0.3032
    ORTHCH:  cpu time    0.0119: real time    0.0119
       DOS:  cpu time    0.0007: real time    0.0007
    CHARGE:  cpu time    0.0265: real time    0.0265
    MIXING:  cpu time    0.0029: real time    0.0029
    --------------------------------------------
      LOOP:  cpu time    0.4962: real time    0.4969

 eigenvalue-minimisations  :    72
 total energy-change (2. order) : 0.8864844E+01  (-0.3433888E+01)
 number of electron      48.0001159 magnetization 
 augmentation part        4.2763951 magnetization 

 DIPCOR: dipole corrections for dipol
 direction  1 min pos     1, direction  2 min pos     1, direction  3 min pos     1,
 dipolmoment           0.057032      0.052720     -0.029260 electrons x Angstroem
 Tr[quadrupol]        24.960835

 energy correction for charged system         0.000000 eV
 dipol+quadrupol energy correction           -0.000026 eV
 added-field ion interaction          0.000604 eV  (added to PSCEN)


 Broyden mixing:
  rms(total) = 0.69844E+00    rms(broyden)= 0.69761E+00
  rms(prec ) = 0.73682E+00
  weight for this iteration     100.00

 eigenvalues of (default mixing * dielectric matrix)
  average eigenvalue GAMMA=   1.0294
  1.0294

 Free energy of the ion-electron system (eV)
  ---------------------------------------------------
  alpha Z        PSCENC =         1.00970869
  Ewald energy   TEWEN  =      3136.43382897
  -Hartree energ DENC   =     -5420.09754538
  -exchange      EXHF   =         0.00000000
  -V(xc)+E(xc)   XCENC  =       202.24075077
  PAW double counting   =      2674.95532648    -2687.74568300
  entropy T*S    EENTRO =        -0.00000000
  eigenvalues    EBANDS =      -738.22547105
  atomic energy  EATOM  =      2743.32276819
  Solvation  Ediel_sol  =         0.00000000
  ---------------------------------------------------
  free energy    TOTEN  =       -88.10631632 eV

  energy without entropy =      -88.10631632  energy(sigma->0) =      -88.10631632


--------------------------------------------------------------------------------------------------------




--------------------------------------- Iteration      1(   7)  ---------------------------------------


    POTLOK:  cpu time    0.0790: real time    0.0792
    SETDIJ:  cpu time    0.0015: real time    0.0016
    EDDIAG:  cpu time    0.0707: real time    0.0709
  RMM-DIIS:  cpu time    0.3010: real time    0.3011
    ORTHCH:  cpu time    0.0129: real time    0.0129
       DOS:  cpu time    0.0003: real time    0.0003
    CHARGE:  cpu time    0.0270: real time    0.0270
    MIXING:  cpu time    0.0030: real time    0.0030
    --------------------------------------------
      LOOP:  cpu time    0.4955: real time    0.4960

 eigenvalue-minimisations  :    72
 total energy-change (2. order) : 0.3725649E+00  (-0.1929604E+00)
 number of electron      48.0001126 magnetization 
 augmentation part        4.1718797 magnetization 

 DIPCOR: dipole corrections for dipol
 direction  1 min pos     1, direction  2 min pos     1, direction  3 min pos     1,
 dipolmoment           0.098991      0.086140     -0.047105 electrons x Angstroem
 Tr[quadrupol]        24.001318

 energy correction for charged system         0.000000 eV
 dipol+quadrupol energy correction           -0.000073 eV
 added-field ion interaction          0.001031 eV  (added to PSCEN)


 Broyden mixing:
  rms(total) = 0.45046E+00    rms(broyden)= 0.45033E+00
  rms(prec ) = 0.47226E+00
  weight for this iteration     100.00

 eigenvalues of (default mixing * dielectric matrix)
  average eigenvalue GAMMA=   1.7483
  1.2040  2.2927

 Free energy of the ion-electron system (eV)
  ---------------------------------------------------
  alpha Z        PSCENC =         1.01008808
  Ewald energy   TEWEN  =      3136.43382897
  -Hartree energ DENC   =     -5452.06287484
  -exchange      EXHF   =         0.00000000
  -V(xc)+E(xc)   XCENC  =       203.79381929
  PAW double counting   =      2992.31820825    -3005.15504590
  entropy T*S    EENTRO =        -0.00000000
  eigenvalues    EBANDS =      -707.39454346
  atomic energy  EATOM  =      2743.32276819
  Solvation  Ediel_sol  =         0.00000000
  ---------------------------------------------------
  free energy    TOTEN  =       -87.73375142 eV

  energy without entropy =      -87.73375142  energy(sigma->0) =      -87.73375142


--------------------------------------------------------------------------------------------------------




--------------------------------------- Iteration      1(   8)  ---------------------------------------


    POTLOK:  cpu time    0.0893: real time    0.0896
    SETDIJ:  cpu time    0.0016: real time    0.0016
    EDDIAG:  cpu time    0.0712: real time    0.0712
  RMM-DIIS:  cpu time    0.3029: real time    0.3029
    ORTHCH:  cpu time    0.0126: real time    0.0126
       DOS:  cpu time    0.0004: real time    0.0004
    CHARGE:  cpu time    0.0267: real time    0.0267
    MIXING:  cpu time    0.0035: real time    0.0035
    --------------------------------------------
      LOOP:  cpu time    0.5081: real time    0.5084

 eigenvalue-minimisations  :    72
 total energy-change (2. order) : 0.2449406E+00  (-0.4942484E-01)
 number of electron      48.0001136 magnetization 
 augmentation part        4.1996146 magnetization 

 DIPCOR: dipole corrections for dipol
 direction  1 min pos     1, direction  2 min pos     1, direction  3 min pos     1,
 dipolmoment           0.175247      0.143545     -0.075997 electrons x Angstroem
 Tr[quadrupol]        22.332882

 energy correction for charged system         0.000000 eV
 dipol+quadrupol energy correction           -0.000215 eV
 added-field ion interaction          0.001792 eV  (added to PSCEN)


 Broyden mixing:
  rms(total) = 0.73900E-01    rms(broyden)= 0.73859E-01
  rms(prec ) = 0.92822E-01
  weight for this iteration     100.00

 eigenvalues of (default mixing * dielectric matrix)
  average eigenvalue GAMMA=   1.5749
  2.4602  1.1323  1.1323

 Free energy of the ion-electron system (eV)
  ---------------------------------------------------
  alpha Z        PSCENC =         1.01070732
  Ewald energy   TEWEN  =      3136.43382897
  -Hartree energ DENC   =     -5474.90485388
  -exchange      EXHF   =         0.00000000
  -V(xc)+E(xc)   XCENC  =       204.67456116
  PAW double counting   =      3371.77948147    -3384.26793749
  entropy T*S    EENTRO =        -0.00000000
  eigenvalues    EBANDS =      -685.53736654
  atomic energy  EATOM  =      2743.32276819
  Solvation  Ediel_sol  =         0.00000000
  ---------------------------------------------------
  free energy    TOTEN  =       -87.48881080 eV

  energy without entropy =      -87.48881080  energy(sigma->0) =      -87.48881080


--------------------------------------------------------------------------------------------------------




--------------------------------------- Iteration      1(   9)  ---------------------------------------


    POTLOK:  cpu time    0.0810: real time    0.0812
    SETDIJ:  cpu time    0.0016: real time    0.0016
    EDDIAG:  cpu time    0.0714: real time    0.0714
  RMM-DIIS:  cpu time    0.3018: real time    0.3018
    ORTHCH:  cpu time    0.0125: real time    0.0125
       DOS:  cpu time    0.0003: real time    0.0003
    CHARGE:  cpu time    0.0264: real time    0.0264
    MIXING:  cpu time    0.0035: real time    0.0035
    --------------------------------------------
      LOOP:  cpu time    0.4986: real time    0.4988

 eigenvalue-minimisations  :    72
 total energy-change (2. order) : 0.3062458E-01  (-0.1643956E-01)
 number of electron      48.0001124 magnetization 
 augmentation part        4.1651052 magnetization 

 DIPCOR: dipole corrections for dipol
 direction  1 min pos     1, direction  2 min pos     1, direction  3 min pos     1,
 dipolmoment           0.202091      0.164450     -0.086457 electrons x Angstroem
 Tr[quadrupol]        21.698354

 energy correction for charged system         0.000000 eV
 dipol+quadrupol energy correction           -0.000284 eV
 added-field ion interaction          0.002061 eV  (added to PSCEN)


 Broyden mixing:
  rms(total) = 0.34292E-01    rms(broyden)= 0.34210E-01
  rms(prec ) = 0.48957E-01
  weight for this iteration     100.00

 eigenvalues of (default mixing * dielectric matrix)
  average eigenvalue GAMMA=   1.8639
  1.0210  1.0210  2.7068  2.7068

 Free energy of the ion-electron system (eV)
  ---------------------------------------------------
  alpha Z        PSCENC =         1.01090818
  Ewald energy   TEWEN  =      3136.43382897
  -Hartree energ DENC   =     -5487.09983271
  -exchange      EXHF   =         0.00000000
  -V(xc)+E(xc)   XCENC  =       205.19637830
  PAW double counting   =      3399.79481755    -3412.38084072
  entropy T*S    EENTRO =        -0.00000000
  eigenvalues    EBANDS =      -673.73621398
  atomic energy  EATOM  =      2743.32276819
  Solvation  Ediel_sol  =         0.00000000
  ---------------------------------------------------
  free energy    TOTEN  =       -87.45818622 eV

  energy without entropy =      -87.45818622  energy(sigma->0) =      -87.45818622


--------------------------------------------------------------------------------------------------------




--------------------------------------- Iteration      1(  10)  ---------------------------------------


    POTLOK:  cpu time    0.0797: real time    0.0799
    SETDIJ:  cpu time    0.0019: real time    0.0019
    EDDIAG:  cpu time    0.0715: real time    0.0715
  RMM-DIIS:  cpu time    0.3280: real time    0.3280
    ORTHCH:  cpu time    0.0119: real time    0.0119
       DOS:  cpu time    0.0011: real time    0.0011
    CHARGE:  cpu time    0.0267: real time    0.0267
    MIXING:  cpu time    0.0042: real time    0.0042
    --------------------------------------------
      LOOP:  cpu time    0.5249: real time    0.5251

 eigenvalue-minimisations  :    74
 total energy-change (2. order) : 0.1796296E-02  (-0.4278533E-02)
 number of electron      48.0001120 magnetization 
 augmentation part        4.1523033 magnetization 

 DIPCOR: dipole corrections for dipol
 direction  1 min pos     1, direction  2 min pos     1, direction  3 min pos     1,
 dipolmoment           0.256724      0.206400     -0.106327 electrons x Angstroem
 Tr[quadrupol]        20.358548

 energy correction for charged system         0.000000 eV
 dipol+quadrupol energy correction           -0.000452 eV
 added-field ion interaction          0.002606 eV  (added to PSCEN)


 Broyden mixing:
  rms(total) = 0.37651E-01    rms(broyden)= 0.37634E-01
  rms(prec ) = 0.43004E-01
  weight for this iteration     100.00

 eigenvalues of (default mixing * dielectric matrix)
  average eigenvalue GAMMA=   1.7299
  3.1189  2.4771  1.0170  1.0170  1.0198

 Free energy of the ion-electron system (eV)
  ---------------------------------------------------
  alpha Z        PSCENC =         1.01128485
  Ewald energy   TEWEN  =      3136.43382897
  -Hartree energ DENC   =     -5497.06650454
  -exchange      EXHF   =         0.00000000
  -V(xc)+E(xc)   XCENC  =       205.33751176
  PAW double counting   =      3358.75701299    -3371.33982969
  entropy T*S    EENTRO =        -0.00000000
  eigenvalues    EBANDS =      -663.91246246
  atomic energy  EATOM  =      2743.32276819
  Solvation  Ediel_sol  =         0.00000000
  ---------------------------------------------------
  free energy    TOTEN  =       -87.45638992 eV

  energy without entropy =      -87.45638992  energy(sigma->0) =      -87.45638992


--------------------------------------------------------------------------------------------------------




--------------------------------------- Iteration      1(  11)  ---------------------------------------


    POTLOK:  cpu time    0.0802: real time    0.0812
    SETDIJ:  cpu time    0.0015: real time    0.0015
    EDDIAG:  cpu time    0.0709: real time    0.0711
  RMM-DIIS:  cpu time    0.3038: real time    0.3039
    ORTHCH:  cpu time    0.0118: real time    0.0118
       DOS:  cpu time    0.0010: real time    0.0010
    CHARGE:  cpu time    0.0265: real time    0.0265
    MIXING:  cpu time    0.0040: real time    0.0040
    --------------------------------------------
      LOOP:  cpu time    0.4998: real time    0.5010

 eigenvalue-minimisations  :    72
 total energy-change (2. order) :-0.1061381E-02  (-0.1069407E-02)
 number of electron      48.0001123 magnetization 
 augmentation part        4.1599660 magnetization 

 DIPCOR: dipole corrections for dipol
 direction  1 min pos     1, direction  2 min pos     1, direction  3 min pos     1,
 dipolmoment           0.267088      0.215140     -0.110168 electrons x Angstroem
 Tr[quadrupol]        20.026932

 energy correction for charged system         0.000000 eV
 dipol+quadrupol energy correction           -0.000489 eV
 added-field ion interaction          0.002710 eV  (added to PSCEN)


 Broyden mixing:
  rms(total) = 0.10349E-01    rms(broyden)= 0.10338E-01
  rms(prec ) = 0.17052E-01
  weight for this iteration     100.00

 eigenvalues of (default mixing * dielectric matrix)
  average eigenvalue GAMMA=   1.8414
  3.6757  2.4852  1.7710  0.9515  1.0826  1.0826

 Free energy of the ion-electron system (eV)
  ---------------------------------------------------
  alpha Z        PSCENC =         1.01135191
  Ewald energy   TEWEN  =      3136.43382897
  -Hartree energ DENC   =     -5497.28312825
  -exchange      EXHF   =         0.00000000
  -V(xc)+E(xc)   XCENC  =       205.26009145
  PAW double counting   =      3361.28773491    -3373.83043459
  entropy T*S    EENTRO =        -0.00000000
  eigenvalues    EBANDS =      -663.65966390
  atomic energy  EATOM  =      2743.32276819
  Solvation  Ediel_sol  =         0.00000000
  ---------------------------------------------------
  free energy    TOTEN  =       -87.45745131 eV

  energy without entropy =      -87.45745131  energy(sigma->0) =      -87.45745131


--------------------------------------------------------------------------------------------------------




--------------------------------------- Iteration      1(  12)  ---------------------------------------


    POTLOK:  cpu time    0.0807: real time    0.0810
    SETDIJ:  cpu time    0.0017: real time    0.0017
    EDDIAG:  cpu time    0.0719: real time    0.0720
  RMM-DIIS:  cpu time    0.3018: real time    0.3019
    ORTHCH:  cpu time    0.0122: real time    0.0122
       DOS:  cpu time    0.0005: real time    0.0005
    CHARGE:  cpu time    0.0269: real time    0.0269
    MIXING:  cpu time    0.0042: real time    0.0042
    --------------------------------------------
      LOOP:  cpu time    0.4999: real time    0.5004

 eigenvalue-minimisations  :    72
 total energy-change (2. order) :-0.1473820E-01  (-0.8562558E-03)
 number of electron      48.0001125 magnetization 
 augmentation part        4.1658908 magnetization 

 DIPCOR: dipole corrections for dipol
 direction  1 min pos     1, direction  2 min pos     1, direction  3 min pos     1,
 dipolmoment           0.286808      0.233830     -0.118113 electrons x Angstroem
 Tr[quadrupol]        19.229551

 energy correction for charged system         0.000000 eV
 dipol+quadrupol energy correction           -0.000569 eV
 added-field ion interaction          0.002914 eV  (added to PSCEN)


 Broyden mixing:
  rms(total) = 0.11694E-01    rms(broyden)= 0.11684E-01
  rms(prec ) = 0.14114E-01
  weight for this iteration     100.00

 eigenvalues of (default mixing * dielectric matrix)
  average eigenvalue GAMMA=   1.9994
  4.7637  2.7153  2.4721  1.0618  1.0618  0.9605  0.9605

 Free energy of the ion-electron system (eV)
  ---------------------------------------------------
  alpha Z        PSCENC =         1.01147581
  Ewald energy   TEWEN  =      3136.43382897
  -Hartree energ DENC   =     -5499.82479586
  -exchange      EXHF   =         0.00000000
  -V(xc)+E(xc)   XCENC  =       205.20985910
  PAW double counting   =      3361.72002936    -3374.24026381
  entropy T*S    EENTRO =        -0.00000000
  eigenvalues    EBANDS =      -661.10509126
  atomic energy  EATOM  =      2743.32276819
  Solvation  Ediel_sol  =         0.00000000
  ---------------------------------------------------
  free energy    TOTEN  =       -87.47218950 eV

  energy without entropy =      -87.47218950  energy(sigma->0) =      -87.47218950


--------------------------------------------------------------------------------------------------------




--------------------------------------- Iteration      1(  13)  ---------------------------------------


    POTLOK:  cpu time    0.0810: real time    0.0812
    SETDIJ:  cpu time    0.0015: real time    0.0015
    EDDIAG:  cpu time    0.0705: real time    0.0707
  RMM-DIIS:  cpu time    0.3180: real time    0.3180
    ORTHCH:  cpu time    0.0124: real time    0.0124
       DOS:  cpu time    0.0004: real time    0.0004
    CHARGE:  cpu time    0.0271: real time    0.0271
    MIXING:  cpu time    0.0045: real time    0.0045
    --------------------------------------------
      LOOP:  cpu time    0.5153: real time    0.5158

 eigenvalue-minimisations  :    74
 total energy-change (2. order) :-0.5793332E-02  (-0.2408387E-03)
 number of electron      48.0001124 magnetization 
 augmentation part        4.1637323 magnetization 

 DIPCOR: dipole corrections for dipol
 direction  1 min pos     1, direction  2 min pos     1, direction  3 min pos     1,
 dipolmoment           0.294924      0.242551     -0.121857 electrons x Angstroem
 Tr[quadrupol]        18.802158

 energy correction for charged system         0.000000 eV
 dipol+quadrupol energy correction           -0.000606 eV
 added-field ion interaction          0.003000 eV  (added to PSCEN)


 Broyden mixing:
  rms(total) = 0.53028E-02    rms(broyden)= 0.53002E-02
  rms(prec ) = 0.68837E-02
  weight for this iteration     100.00

 eigenvalues of (default mixing * dielectric matrix)
  average eigenvalue GAMMA=   2.1609
  5.6837  2.9947  2.5141  1.9703  1.1110  1.1110  0.9017  1.0004

 Free energy of the ion-electron system (eV)
  ---------------------------------------------------
  alpha Z        PSCENC =         1.01152548
  Ewald energy   TEWEN  =      3136.43382897
  -Hartree energ DENC   =     -5501.90805272
  -exchange      EXHF   =         0.00000000
  -V(xc)+E(xc)   XCENC  =       205.24050484
  PAW double counting   =      3364.39069553    -3376.91936039
  entropy T*S    EENTRO =        -0.00000000
  eigenvalues    EBANDS =      -659.04989274
  atomic energy  EATOM  =      2743.32276819
  Solvation  Ediel_sol  =         0.00000000
  ---------------------------------------------------
  free energy    TOTEN  =       -87.47798283 eV

  energy without entropy =      -87.47798283  energy(sigma->0) =      -87.47798283


--------------------------------------------------------------------------------------------------------




--------------------------------------- Iteration      1(  14)  ---------------------------------------


    POTLOK:  cpu time    0.0810: real time    0.0812
    SETDIJ:  cpu time    0.0015: real time    0.0015
    EDDIAG:  cpu time    0.0714: real time    0.0714
  RMM-DIIS:  cpu time    0.3166: real time    0.3167
    ORTHCH:  cpu time    0.0120: real time    0.0120
       DOS:  cpu time    0.0009: real time    0.0009
    CHARGE:  cpu time    0.0271: real time    0.0271
    MIXING:  cpu time    0.0049: real time    0.0049
    --------------------------------------------
      LOOP:  cpu time    0.5153: real time    0.5156

 eigenvalue-minimisations  :    73
 total energy-change (2. order) :-0.7193666E-02  (-0.2140754E-03)
 number of electron      48.0001123 magnetization 
 augmentation part        4.1606138 magnetization 

 DIPCOR: dipole corrections for dipol
 direction  1 min pos     1, direction  2 min pos     1, direction  3 min pos     1,
 dipolmoment           0.297118      0.247162     -0.123862 electrons x Angstroem
 Tr[quadrupol]        18.458178

 energy correction for charged system         0.000000 eV
 dipol+quadrupol energy correction           -0.000621 eV
 added-field ion interaction          0.003030 eV  (added to PSCEN)


 Broyden mixing:
  rms(total) = 0.34788E-02    rms(broyden)= 0.34730E-02
  rms(prec ) = 0.41908E-02
  weight for this iteration     100.00

 eigenvalues of (default mixing * dielectric matrix)
  average eigenvalue GAMMA=   2.0630
  5.9516  3.1950  2.4556  1.8212  1.1461  1.1461  0.9583  0.9465  0.9465

 Free energy of the ion-electron system (eV)
  ---------------------------------------------------
  alpha Z        PSCENC =         1.01153948
  Ewald energy   TEWEN  =      3136.43382897
  -Hartree energ DENC   =     -5503.06569456
  -exchange      EXHF   =         0.00000000
  -V(xc)+E(xc)   XCENC  =       205.26029966
  PAW double counting   =      3365.41536225    -3377.95253749
  entropy T*S    EENTRO =        -0.00000000
  eigenvalues    EBANDS =      -657.91074300
  atomic energy  EATOM  =      2743.32276819
  Solvation  Ediel_sol  =         0.00000000
  ---------------------------------------------------
  free energy    TOTEN  =       -87.48517650 eV

  energy without entropy =      -87.48517650  energy(sigma->0) =      -87.48517650


--------------------------------------------------------------------------------------------------------




--------------------------------------- Iteration      1(  15)  ---------------------------------------


    POTLOK:  cpu time    0.0811: real time    0.0812
    SETDIJ:  cpu time    0.0016: real time    0.0016
    EDDIAG:  cpu time    0.0708: real time    0.0708
  RMM-DIIS:  cpu time    0.3175: real time    0.3176
    ORTHCH:  cpu time    0.0125: real time    0.0125
       DOS:  cpu time    0.0003: real time    0.0003
    CHARGE:  cpu time    0.0269: real time    0.0269
    MIXING:  cpu time    0.0048: real time    0.0048
    --------------------------------------------
      LOOP:  cpu time    0.5156: real time    0.5158

 eigenvalue-minimisations  :    74
 total energy-change (2. order) :-0.1128797E-02  (-0.2512679E-04)
 number of electron      48.0001123 magnetization 
 augmentation part        4.1608816 magnetization 

 DIPCOR: dipole corrections for dipol
 direction  1 min pos     1, direction  2 min pos     1, direction  3 min pos     1,
 dipolmoment           0.297281      0.247815     -0.124128 electrons x Angstroem
 Tr[quadrupol]        18.396736

 energy correction for charged system         0.000000 eV
 dipol+quadrupol energy correction           -0.000623 eV
 added-field ion interaction          0.003033 eV  (added to PSCEN)


 Broyden mixing:
  rms(total) = 0.16800E-02    rms(broyden)= 0.16796E-02
  rms(prec ) = 0.23784E-02
  weight for this iteration     100.00

 eigenvalues of (default mixing * dielectric matrix)
  average eigenvalue GAMMA=   2.1777
  6.9183  3.6130  2.4249  2.4249  1.2037  1.2037  1.1020  1.0077  1.0077  0.8706

 Free energy of the ion-electron system (eV)
  ---------------------------------------------------
  alpha Z        PSCENC =         1.01154059
  Ewald energy   TEWEN  =      3136.43382897
  -Hartree energ DENC   =     -5502.93383806
  -exchange      EXHF   =         0.00000000
  -V(xc)+E(xc)   XCENC  =       205.24783607
  PAW double counting   =      3364.76806408    -3377.30218124
  entropy T*S    EENTRO =        -0.00000000
  eigenvalues    EBANDS =      -658.03432390
  atomic energy  EATOM  =      2743.32276819
  Solvation  Ediel_sol  =         0.00000000
  ---------------------------------------------------
  free energy    TOTEN  =       -87.48630530 eV

  energy without entropy =      -87.48630530  energy(sigma->0) =      -87.48630530


--------------------------------------------------------------------------------------------------------




--------------------------------------- Iteration      1(  16)  ---------------------------------------


    POTLOK:  cpu time    0.0826: real time    0.0828
    SETDIJ:  cpu time    0.0018: real time    0.0018
    EDDIAG:  cpu time    0.0713: real time    0.0715
  RMM-DIIS:  cpu time    0.3017: real time    0.3017
    ORTHCH:  cpu time    0.0127: real time    0.0127
       DOS:  cpu time    0.0003: real time    0.0003
    CHARGE:  cpu time    0.0265: real time    0.0265
    MIXING:  cpu time    0.0054: real time    0.0054
    --------------------------------------------
      LOOP:  cpu time    0.5025: real time    0.5028

 eigenvalue-minimisations  :    72
 total energy-change (2. order) :-0.1939439E-02  (-0.2623344E-04)
 number of electron      48.0001123 magnetization 
 augmentation part        4.1614200 magnetization 

 DIPCOR: dipole corrections for dipol
 direction  1 min pos     1, direction  2 min pos     1, direction  3 min pos     1,
 dipolmoment           0.297645      0.249133     -0.124728 electrons x Angstroem
 Tr[quadrupol]        18.274471

 energy correction for charged system         0.000000 eV
 dipol+quadrupol energy correction           -0.000627 eV
 added-field ion interaction          0.003039 eV  (added to PSCEN)


 Broyden mixing:
  rms(total) = 0.80890E-03    rms(broyden)= 0.80788E-03
  rms(prec ) = 0.12111E-02
  weight for this iteration     100.00

 eigenvalues of (default mixing * dielectric matrix)
  average eigenvalue GAMMA=   2.2447
  7.1795  4.2194  2.7738  2.4524  1.4936  1.4936  1.0620  1.0620  1.0985  0.8981
  0.9588

 Free energy of the ion-electron system (eV)
  ---------------------------------------------------
  alpha Z        PSCENC =         1.01154309
  Ewald energy   TEWEN  =      3136.43382897
  -Hartree energ DENC   =     -5502.91069594
  -exchange      EXHF   =         0.00000000
  -V(xc)+E(xc)   XCENC  =       205.23914232
  PAW double counting   =      3364.05728719    -3376.58946956
  entropy T*S    EENTRO =        -0.00000000
  eigenvalues    EBANDS =      -658.05264900
  atomic energy  EATOM  =      2743.32276819
  Solvation  Ediel_sol  =         0.00000000
  ---------------------------------------------------
  free energy    TOTEN  =       -87.48824473 eV

  energy without entropy =      -87.48824473  energy(sigma->0) =      -87.48824473


--------------------------------------------------------------------------------------------------------




--------------------------------------- Iteration      1(  17)  ---------------------------------------


    POTLOK:  cpu time    0.0814: real time    0.0816
    SETDIJ:  cpu time    0.0015: real time    0.0015
    EDDIAG:  cpu time    0.0713: real time    0.0713
  RMM-DIIS:  cpu time    0.3151: real time    0.3152
    ORTHCH:  cpu time    0.0129: real time    0.0129
       DOS:  cpu time    0.0003: real time    0.0003
    CHARGE:  cpu time    0.0263: real time    0.0263
    MIXING:  cpu time    0.0057: real time    0.0057
    --------------------------------------------
      LOOP:  cpu time    0.5145: real time    0.5147

 eigenvalue-minimisations  :    73
 total energy-change (2. order) :-0.7933049E-03  (-0.1364760E-04)
 number of electron      48.0001123 magnetization 
 augmentation part        4.1607302 magnetization 

 DIPCOR: dipole corrections for dipol
 direction  1 min pos     1, direction  2 min pos     1, direction  3 min pos     1,
 dipolmoment           0.298806      0.250457     -0.125391 electrons x Angstroem
 Tr[quadrupol]        18.194480

 energy correction for charged system         0.000000 eV
 dipol+quadrupol energy correction           -0.000632 eV
 added-field ion interaction          0.003052 eV  (added to PSCEN)


 Broyden mixing:
  rms(total) = 0.18851E-02    rms(broyden)= 0.18847E-02
  rms(prec ) = 0.20837E-02
  weight for this iteration     100.00

 eigenvalues of (default mixing * dielectric matrix)
  average eigenvalue GAMMA=   2.2882
  7.6243  5.0105  2.8230  2.4581  2.2927  1.1395  1.1395  0.8907  1.0250  1.0250
  1.0151  1.0151

 Free energy of the ion-electron system (eV)
  ---------------------------------------------------
  alpha Z        PSCENC =         1.01155019
  Ewald energy   TEWEN  =      3136.43382897
  -Hartree energ DENC   =     -5503.12116739
  -exchange      EXHF   =         0.00000000
  -V(xc)+E(xc)   XCENC  =       205.24645179
  PAW double counting   =      3364.02364568    -3376.55807616
  entropy T*S    EENTRO =        -0.00000000
  eigenvalues    EBANDS =      -657.84803932
  atomic energy  EATOM  =      2743.32276819
  Solvation  Ediel_sol  =         0.00000000
  ---------------------------------------------------
  free energy    TOTEN  =       -87.48903804 eV

  energy without entropy =      -87.48903804  energy(sigma->0) =      -87.48903804


--------------------------------------------------------------------------------------------------------




--------------------------------------- Iteration      1(  18)  ---------------------------------------


    POTLOK:  cpu time    0.0808: real time    0.0810
    SETDIJ:  cpu time    0.0015: real time    0.0015
    EDDIAG:  cpu time    0.0709: real time    0.0709
  RMM-DIIS:  cpu time    0.3010: real time    0.3010
    ORTHCH:  cpu time    0.0127: real time    0.0127
       DOS:  cpu time    0.0003: real time    0.0003
    CHARGE:  cpu time    0.0265: real time    0.0265
    MIXING:  cpu time    0.0058: real time    0.0058
    --------------------------------------------
      LOOP:  cpu time    0.4996: real time    0.4998

 eigenvalue-minimisations  :    72
 total energy-change (2. order) :-0.3432865E-03  (-0.1051548E-04)
 number of electron      48.0001123 magnetization 
 augmentation part        4.1615580 magnetization 

 DIPCOR: dipole corrections for dipol
 direction  1 min pos     1, direction  2 min pos     1, direction  3 min pos     1,
 dipolmoment           0.299799      0.251328     -0.125807 electrons x Angstroem
 Tr[quadrupol]        18.156317

 energy correction for charged system         0.000000 eV
 dipol+quadrupol energy correction           -0.000637 eV
 added-field ion interaction          0.003062 eV  (added to PSCEN)


 Broyden mixing:
  rms(total) = 0.60708E-03    rms(broyden)= 0.60546E-03
  rms(prec ) = 0.71282E-03
  weight for this iteration     100.00

 eigenvalues of (default mixing * dielectric matrix)
  average eigenvalue GAMMA=   2.3357
  8.0392  5.3033  3.0576  2.5802  2.3519  1.6471  1.1787  1.1787  1.0420  1.0420
  1.0890  0.8996  0.9543

 Free energy of the ion-electron system (eV)
  ---------------------------------------------------
  alpha Z        PSCENC =         1.01155611
  Ewald energy   TEWEN  =      3136.43382897
  -Hartree energ DENC   =     -5502.93959329
  -exchange      EXHF   =         0.00000000
  -V(xc)+E(xc)   XCENC  =       205.23529712
  PAW double counting   =      3363.75331548    -3376.28454296
  entropy T*S    EENTRO =        -0.00000000
  eigenvalues    EBANDS =      -658.02201095
  atomic energy  EATOM  =      2743.32276819
  Solvation  Ediel_sol  =         0.00000000
  ---------------------------------------------------
  free energy    TOTEN  =       -87.48938133 eV

  energy without entropy =      -87.48938133  energy(sigma->0) =      -87.48938133


--------------------------------------------------------------------------------------------------------




--------------------------------------- Iteration      1(  19)  ---------------------------------------


    POTLOK:  cpu time    0.0817: real time    0.0818
    SETDIJ:  cpu time    0.0019: real time    0.0019
    EDDIAG:  cpu time    0.0705: real time    0.0705
  RMM-DIIS:  cpu time    0.2750: real time    0.2751
    ORTHCH:  cpu time    0.0126: real time    0.0126
       DOS:  cpu time    0.0003: real time    0.0003
    CHARGE:  cpu time    0.0265: real time    0.0265
    MIXING:  cpu time    0.0063: real time    0.0063
    --------------------------------------------
      LOOP:  cpu time    0.4747: real time    0.4750

 eigenvalue-minimisations  :    64
 total energy-change (2. order) :-0.2084898E-03  (-0.8915028E-06)
 number of electron      48.0001123 magnetization 
 augmentation part        4.1616384 magnetization 

 DIPCOR: dipole corrections for dipol
 direction  1 min pos     1, direction  2 min pos     1, direction  3 min pos     1,
 dipolmoment           0.301422      0.252537     -0.126389 electrons x Angstroem
 Tr[quadrupol]        18.127409

 energy correction for charged system         0.000000 eV
 dipol+quadrupol energy correction           -0.000643 eV
 added-field ion interaction          0.003078 eV  (added to PSCEN)


 Broyden mixing:
  rms(total) = 0.69334E-03    rms(broyden)= 0.69319E-03
  rms(prec ) = 0.75989E-03
  weight for this iteration     100.00

 eigenvalues of (default mixing * dielectric matrix)
  average eigenvalue GAMMA=   2.3689
  8.3570  5.7283  3.5707  2.7080  2.4671  2.0482  1.0630  1.0630  1.0776  1.0776
  0.8815  0.9320  1.0955  1.0955

 Free energy of the ion-electron system (eV)
  ---------------------------------------------------
  alpha Z        PSCENC =         1.01156567
  Ewald energy   TEWEN  =      3136.43382897
  -Hartree energ DENC   =     -5502.95901682
  -exchange      EXHF   =         0.00000000
  -V(xc)+E(xc)   XCENC  =       205.23482007
  PAW double counting   =      3363.80173308    -3376.33307899
  entropy T*S    EENTRO =        -0.00000000
  eigenvalues    EBANDS =      -658.00220999
  atomic energy  EATOM  =      2743.32276819
  Solvation  Ediel_sol  =         0.00000000
  ---------------------------------------------------
  free energy    TOTEN  =       -87.48958981 eV

  energy without entropy =      -87.48958981  energy(sigma->0) =      -87.48958981


--------------------------------------------------------------------------------------------------------




--------------------------------------- Iteration      1(  20)  ---------------------------------------


    POTLOK:  cpu time    0.0830: real time    0.0832
    SETDIJ:  cpu time    0.0015: real time    0.0015
    EDDIAG:  cpu time    0.0700: real time    0.0700
  RMM-DIIS:  cpu time    0.3167: real time    0.3167
    ORTHCH:  cpu time    0.0124: real time    0.0124
       DOS:  cpu time    0.0007: real time    0.0007
    CHARGE:  cpu time    0.0264: real time    0.0264
    MIXING:  cpu time    0.0068: real time    0.0068
    --------------------------------------------
      LOOP:  cpu time    0.5175: real time    0.5177

 eigenvalue-minimisations  :    68
 total energy-change (2. order) :-0.6808504E-04  (-0.7753780E-06)
 number of electron      48.0001123 magnetization 
 augmentation part        4.1614063 magnetization 

 DIPCOR: dipole corrections for dipol
 direction  1 min pos     1, direction  2 min pos     1, direction  3 min pos     1,
 dipolmoment           0.302385      0.253252     -0.126733 electrons x Angstroem
 Tr[quadrupol]        18.113863

 energy correction for charged system         0.000000 eV
 dipol+quadrupol energy correction           -0.000647 eV
 added-field ion interaction          0.003088 eV  (added to PSCEN)


 Broyden mixing:
  rms(total) = 0.10124E-03    rms(broyden)= 0.10050E-03
  rms(prec ) = 0.13464E-03
  weight for this iteration     100.00

 eigenvalues of (default mixing * dielectric matrix)
  average eigenvalue GAMMA=   2.4116
  8.5993  6.0457  3.9640  2.5213  2.5213  2.1060  2.1060  1.1258  1.1258  1.0480
  1.0480  0.8927  1.0420  1.0420  0.9863

 Free energy of the ion-electron system (eV)
  ---------------------------------------------------
  alpha Z        PSCENC =         1.01157133
  Ewald energy   TEWEN  =      3136.43382897
  -Hartree energ DENC   =     -5503.02067124
  -exchange      EXHF   =         0.00000000
  -V(xc)+E(xc)   XCENC  =       205.23744996
  PAW double counting   =      3363.94705236    -3376.47927558
  entropy T*S    EENTRO =        -0.00000000
  eigenvalues    EBANDS =      -657.94238189
  atomic energy  EATOM  =      2743.32276819
  Solvation  Ediel_sol  =         0.00000000
  ---------------------------------------------------
  free energy    TOTEN  =       -87.48965790 eV

  energy without entropy =      -87.48965790  energy(sigma->0) =      -87.48965790


--------------------------------------------------------------------------------------------------------




--------------------------------------- Iteration      1(  21)  ---------------------------------------


    POTLOK:  cpu time    0.0832: real time    0.0836
    SETDIJ:  cpu time    0.0018: real time    0.0018
    EDDIAG:  cpu time    0.0721: real time    0.0721
  RMM-DIIS:  cpu time    0.2082: real time    0.2083
    ORTHCH:  cpu time    0.0124: real time    0.0124
       DOS:  cpu time    0.0003: real time    0.0003
    CHARGE:  cpu time    0.0264: real time    0.0264
    MIXING:  cpu time    0.0068: real time    0.0068
    --------------------------------------------
      LOOP:  cpu time    0.4112: real time    0.4117

 eigenvalue-minimisations  :    48
 total energy-change (2. order) :-0.3701049E-04  (-0.1045852E-06)
 number of electron      48.0001123 magnetization 
 augmentation part        4.1613717 magnetization 

 DIPCOR: dipole corrections for dipol
 direction  1 min pos     1, direction  2 min pos     1, direction  3 min pos     1,
 dipolmoment           0.303158      0.253844     -0.127010 electrons x Angstroem
 Tr[quadrupol]        18.106687

 energy correction for charged system         0.000000 eV
 dipol+quadrupol energy correction           -0.000650 eV
 added-field ion interaction          0.003095 eV  (added to PSCEN)


 Broyden mixing:
  rms(total) = 0.11919E-03    rms(broyden)= 0.11908E-03
  rms(prec ) = 0.13536E-03
  weight for this iteration     100.00

 eigenvalues of (default mixing * dielectric matrix)
  average eigenvalue GAMMA=   2.4190
  9.0497  6.3212  4.3961  2.8383  2.4915  2.3915  1.8548  1.0918  1.0918  1.0720
  1.0720  1.1047  1.1047  1.0025  0.9107  0.9107

 Free energy of the ion-electron system (eV)
  ---------------------------------------------------
  alpha Z        PSCENC =         1.01157585
  Ewald energy   TEWEN  =      3136.43382897
  -Hartree energ DENC   =     -5503.03316983
  -exchange      EXHF   =         0.00000000
  -V(xc)+E(xc)   XCENC  =       205.23788659
  PAW double counting   =      3363.93666858    -3376.46891983
  entropy T*S    EENTRO =        -0.00000000
  eigenvalues    EBANDS =      -657.93033343
  atomic energy  EATOM  =      2743.32276819
  Solvation  Ediel_sol  =         0.00000000
  ---------------------------------------------------
  free energy    TOTEN  =       -87.48969491 eV

  energy without entropy =      -87.48969491  energy(sigma->0) =      -87.48969491


--------------------------------------------------------------------------------------------------------




--------------------------------------- Iteration      1(  22)  ---------------------------------------


    POTLOK:  cpu time    0.0835: real time    0.0838
    SETDIJ:  cpu time    0.0018: real time    0.0018
    EDDIAG:  cpu time    0.0714: real time    0.0714
  RMM-DIIS:  cpu time    0.2104: real time    0.2105
    ORTHCH:  cpu time    0.0126: real time    0.0126
       DOS:  cpu time    0.0003: real time    0.0003
    CHARGE:  cpu time    0.0268: real time    0.0268
    MIXING:  cpu time    0.0072: real time    0.0072
    --------------------------------------------
      LOOP:  cpu time    0.4140: real time    0.4144

 eigenvalue-minimisations  :    48
 total energy-change (2. order) :-0.1066605E-04  (-0.2581971E-07)
 number of electron      48.0001123 magnetization 
 augmentation part        4.1613625 magnetization 

 DIPCOR: dipole corrections for dipol
 direction  1 min pos     1, direction  2 min pos     1, direction  3 min pos     1,
 dipolmoment           0.303506      0.254122     -0.127137 electrons x Angstroem
 Tr[quadrupol]        18.103694

 energy correction for charged system         0.000000 eV
 dipol+quadrupol energy correction           -0.000652 eV
 added-field ion interaction          0.003099 eV  (added to PSCEN)


 Broyden mixing:
  rms(total) = 0.10313E-03    rms(broyden)= 0.10312E-03
  rms(prec ) = 0.11468E-03
  weight for this iteration     100.00

 eigenvalues of (default mixing * dielectric matrix)
  average eigenvalue GAMMA=   2.4223
  9.0864  6.6542  4.5087  2.9948  2.5516  2.1411  2.1411  1.6597  1.1499  1.1499
  1.0445  1.0445  1.0971  1.0619  1.0619  0.9374  0.8949

 Free energy of the ion-electron system (eV)
  ---------------------------------------------------
  alpha Z        PSCENC =         1.01157788
  Ewald energy   TEWEN  =      3136.43382897
  -Hartree energ DENC   =     -5503.03344413
  -exchange      EXHF   =         0.00000000
  -V(xc)+E(xc)   XCENC  =       205.23783871
  PAW double counting   =      3363.94119204    -3376.47348018
  entropy T*S    EENTRO =        -0.00000000
  eigenvalues    EBANDS =      -657.92998708
  atomic energy  EATOM  =      2743.32276819
  Solvation  Ediel_sol  =         0.00000000
  ---------------------------------------------------
  free energy    TOTEN  =       -87.48970558 eV

  energy without entropy =      -87.48970558  energy(sigma->0) =      -87.48970558


--------------------------------------------------------------------------------------------------------




--------------------------------------- Iteration      1(  23)  ---------------------------------------


    POTLOK:  cpu time    0.0833: real time    0.0835
    SETDIJ:  cpu time    0.0015: real time    0.0015
    EDDIAG:  cpu time    0.0708: real time    0.0708
  RMM-DIIS:  cpu time    0.2110: real time    0.2110
    ORTHCH:  cpu time    0.0122: real time    0.0122
       DOS:  cpu time    0.0004: real time    0.0004
    CHARGE:  cpu time    0.0265: real time    0.0265
    MIXING:  cpu time    0.0077: real time    0.0077
    --------------------------------------------
      LOOP:  cpu time    0.4134: real time    0.4136

 eigenvalue-minimisations  :    47
 total energy-change (2. order) :-0.7278757E-05  (-0.3084272E-07)
 number of electron      48.0001123 magnetization 
 augmentation part        4.1613879 magnetization 

 DIPCOR: dipole corrections for dipol
 direction  1 min pos     1, direction  2 min pos     1, direction  3 min pos     1,
 dipolmoment           0.303781      0.254366     -0.127247 electrons x Angstroem
 Tr[quadrupol]        18.102110

 energy correction for charged system         0.000000 eV
 dipol+quadrupol energy correction           -0.000653 eV
 added-field ion interaction          0.003102 eV  (added to PSCEN)


 Broyden mixing:
  rms(total) = 0.40081E-04    rms(broyden)= 0.40021E-04
  rms(prec ) = 0.45903E-04
  weight for this iteration     100.00

 eigenvalues of (default mixing * dielectric matrix)
  average eigenvalue GAMMA=   2.4159
  9.2017  6.9537  4.6966  3.4251  2.4880  2.4880  2.0359  1.5640  1.1695  1.1695
  1.2084  1.2084  1.0135  1.0135  1.0598  0.8845  0.9531  0.9531

 Free energy of the ion-electron system (eV)
  ---------------------------------------------------
  alpha Z        PSCENC =         1.01157950
  Ewald energy   TEWEN  =      3136.43382897
  -Hartree energ DENC   =     -5503.02430854
  -exchange      EXHF   =         0.00000000
  -V(xc)+E(xc)   XCENC  =       205.23738757
  PAW double counting   =      3363.92873334    -3376.46091235
  entropy T*S    EENTRO =        -0.00000000
  eigenvalues    EBANDS =      -657.93878953
  atomic energy  EATOM  =      2743.32276819
  Solvation  Ediel_sol  =         0.00000000
  ---------------------------------------------------
  free energy    TOTEN  =       -87.48971286 eV

  energy without entropy =      -87.48971286  energy(sigma->0) =      -87.48971286


--------------------------------------------------------------------------------------------------------




--------------------------------------- Iteration      1(  24)  ---------------------------------------


    POTLOK:  cpu time    0.0843: real time    0.0844
    SETDIJ:  cpu time    0.0016: real time    0.0016
    EDDIAG:  cpu time    0.0713: real time    0.0713
  RMM-DIIS:  cpu time    0.1882: real time    0.1882
    ORTHCH:  cpu time    0.0125: real time    0.0125
       DOS:  cpu time    0.0003: real time    0.0003
    CHARGE:  cpu time    0.0266: real time    0.0266
    MIXING:  cpu time    0.0081: real time    0.0081
    --------------------------------------------
      LOOP:  cpu time    0.3929: real time    0.3931

 eigenvalue-minimisations  :    31
 total energy-change (2. order) :-0.2419846E-05  (-0.3755078E-08)
 number of electron      48.0001123 magnetization 
 augmentation part        4.1613897 magnetization 

 DIPCOR: dipole corrections for dipol
 direction  1 min pos     1, direction  2 min pos     1, direction  3 min pos     1,
 dipolmoment           0.303907      0.254481     -0.127299 electrons x Angstroem
 Tr[quadrupol]        18.101266

 energy correction for charged system         0.000000 eV
 dipol+quadrupol energy correction           -0.000653 eV
 added-field ion interaction          0.003103 eV  (added to PSCEN)


 Broyden mixing:
  rms(total) = 0.22700E-04    rms(broyden)= 0.22693E-04
  rms(prec ) = 0.26959E-04
  weight for this iteration     100.00

 eigenvalues of (default mixing * dielectric matrix)
  average eigenvalue GAMMA=   2.4535
  9.3439  7.0257  4.9874  3.5886  2.6839  2.5896  2.1951  2.1951  1.3703  1.3703
  1.1622  1.1622  1.0346  1.0346  1.0325  1.0325  0.8917  0.9579  0.9579

 Free energy of the ion-electron system (eV)
  ---------------------------------------------------
  alpha Z        PSCENC =         1.01158023
  Ewald energy   TEWEN  =      3136.43382897
  -Hartree energ DENC   =     -5503.02430045
  -exchange      EXHF   =         0.00000000
  -V(xc)+E(xc)   XCENC  =       205.23737530
  PAW double counting   =      3363.92564260    -3376.45781904
  entropy T*S    EENTRO =        -0.00000000
  eigenvalues    EBANDS =      -657.93879108
  atomic energy  EATOM  =      2743.32276819
  Solvation  Ediel_sol  =         0.00000000
  ---------------------------------------------------
  free energy    TOTEN  =       -87.48971528 eV

  energy without entropy =      -87.48971528  energy(sigma->0) =      -87.48971528


--------------------------------------------------------------------------------------------------------




--------------------------------------- Iteration      1(  25)  ---------------------------------------


    POTLOK:  cpu time    0.0853: real time    0.0854
    SETDIJ:  cpu time    0.0016: real time    0.0016
    EDDIAG:  cpu time    0.0709: real time    0.0710
  RMM-DIIS:  cpu time    0.2102: real time    0.2102
    ORTHCH:  cpu time    0.0121: real time    0.0121
       DOS:  cpu time    0.0006: real time    0.0006
    CHARGE:  cpu time    0.0267: real time    0.0267
    MIXING:  cpu time    0.0085: real time    0.0085
    --------------------------------------------
      LOOP:  cpu time    0.4159: real time    0.4162

 eigenvalue-minimisations  :    46
 total energy-change (2. order) :-0.2831989E-05  (-0.9892924E-08)
 number of electron      48.0001123 magnetization 
 augmentation part        4.1613878 magnetization 

 DIPCOR: dipole corrections for dipol
 direction  1 min pos     1, direction  2 min pos     1, direction  3 min pos     1,
 dipolmoment           0.304024      0.254603     -0.127354 electrons x Angstroem
 Tr[quadrupol]        18.100320

 energy correction for charged system         0.000000 eV
 dipol+quadrupol energy correction           -0.000654 eV
 added-field ion interaction          0.003104 eV  (added to PSCEN)


 Broyden mixing:
  rms(total) = 0.34442E-04    rms(broyden)= 0.34424E-04
  rms(prec ) = 0.37350E-04
  weight for this iteration     100.00

 eigenvalues of (default mixing * dielectric matrix)
  average eigenvalue GAMMA=   2.4016
  9.3868  7.1210  5.1176  3.8675  2.8873  2.4826  2.4826  2.0606  1.2614  1.2614
  1.1403  1.1403  1.0364  1.0364  1.0843  1.0843  0.9764  0.9327  0.8904  0.7816

 Free energy of the ion-electron system (eV)
  ---------------------------------------------------
  alpha Z        PSCENC =         1.01158092
  Ewald energy   TEWEN  =      3136.43382897
  -Hartree energ DENC   =     -5503.02637851
  -exchange      EXHF   =         0.00000000
  -V(xc)+E(xc)   XCENC  =       205.23745381
  PAW double counting   =      3363.92571549    -3376.45791204
  entropy T*S    EENTRO =        -0.00000000
  eigenvalues    EBANDS =      -657.93677494
  atomic energy  EATOM  =      2743.32276819
  Solvation  Ediel_sol  =         0.00000000
  ---------------------------------------------------
  free energy    TOTEN  =       -87.48971811 eV

  energy without entropy =      -87.48971811  energy(sigma->0) =      -87.48971811


--------------------------------------------------------------------------------------------------------




--------------------------------------- Iteration      1(  26)  ---------------------------------------


    POTLOK:  cpu time    0.0872: real time    0.0875
    SETDIJ:  cpu time    0.0016: real time    0.0016
    EDDIAG:  cpu time    0.0710: real time    0.0712
  RMM-DIIS:  cpu time    0.1819: real time    0.1820
    ORTHCH:  cpu time    0.0123: real time    0.0123
       DOS:  cpu time    0.0002: real time    0.0002
    --------------------------------------------
      LOOP:  cpu time    0.3542: real time    0.3547

 eigenvalue-minimisations  :    25
 total energy-change (2. order) :-0.5822576E-06  (-0.2987637E-09)
 number of electron      48.0001123 magnetization 
 augmentation part        4.1613878 magnetization 

 DIPCOR: dipole corrections for dipol
 direction  1 min pos     1, direction  2 min pos     1, direction  3 min pos     1,
 dipolmoment           0.304044      0.254626     -0.127364 electrons x Angstroem
 Tr[quadrupol]        18.100219

 energy correction for charged system         0.000000 eV
 dipol+quadrupol energy correction           -0.000654 eV
 added-field ion interaction          0.003104 eV  (added to PSCEN)


 Free energy of the ion-electron system (eV)
  ---------------------------------------------------
  alpha Z        PSCENC =         1.01158104
  Ewald energy   TEWEN  =      3136.43382897
  -Hartree energ DENC   =     -5503.02379548
  -exchange      EXHF   =         0.00000000
  -V(xc)+E(xc)   XCENC  =       205.23733214
  PAW double counting   =      3363.92358349    -3376.45575118
  entropy T*S    EENTRO =        -0.00000000
  eigenvalues    EBANDS =      -657.93926587
  atomic energy  EATOM  =      2743.32276819
  Solvation  Ediel_sol  =         0.00000000
  ---------------------------------------------------
  free energy    TOTEN  =       -87.48971869 eV

  energy without entropy =      -87.48971869  energy(sigma->0) =      -87.48971869


--------------------------------------------------------------------------------------------------------




 average (electrostatic) potential at core
  the test charge radii are     0.5201  0.7215
  (the norm of the test charge is              1.0000)
       1 -43.8369       2 -43.4005       3 -43.9462       4 -43.8378       5 -43.3739
       6 -44.4521       7 -43.8091       8 -44.9619       9 -44.8705      10 -43.8469
      11 -43.2981      12 -44.8598      13 -80.2069      14 -80.2906      15 -80.3036
      16 -80.8698      17 -80.7794      18 -80.7454
 
 
 
 E-fermi :  -6.3785     XC(G=0):  -0.3079     alpha+bet : -0.0975


 k-point     1 :       0.0000    0.0000    0.0000
  band No.  band energies     occupation 
      1     -25.6822      2.00000
      2     -25.3194      2.00000
      3     -25.2268      2.00000
      4     -24.9919      2.00000
      5     -24.7971      2.00000
      6     -24.5150      2.00000
      7     -13.6763      2.00000
      8     -13.2833      2.00000
      9     -13.0281      2.00000
     10     -12.9756      2.00000
     11     -12.5696      2.00000
     12     -12.4448      2.00000
     13     -10.5722      2.00000
     14      -9.7634      2.00000
     15      -9.6011      2.00000
     16      -9.1692      2.00000
     17      -9.0751      2.00000
     18      -8.4641      2.00000
     19      -7.6644      2.00000
     20      -7.5835      2.00000
     21      -7.4881      2.00000
     22      -7.1859      2.00000
     23      -6.9731      2.00000
     24      -6.9195      2.00000
     25      -1.2241      0.00000
     26      -0.5041      0.00000
     27      -0.4536      0.00000
     28      -0.1052      0.00000
[...]


    POTLOK:  cpu time    0.0904: real time    0.0917
    SETDIJ:  cpu time    0.0015: real time    0.0015
     EDDAV:  cpu time    0.4174: real time    0.4175
       DOS:  cpu time    0.0005: real time    0.0005
    CHARGE:  cpu time    0.0269: real time    0.0269
    MIXING:  cpu time    0.0027: real time    0.0027
    --------------------------------------------
      LOOP:  cpu time    0.5394: real time    0.5408

 eigenvalue-minimisations  :    88
 total energy-change (2. order) :-0.8389893E-05  (-0.5924347E-04)
 number of electron      48.0001178 magnetization 
 augmentation part        4.1609569 magnetization 

 DIPCOR: dipole corrections for dipol
 direction  1 min pos     1, direction  2 min pos     1, direction  3 min pos     1,
 dipolmoment           0.313555      0.256085     -0.121674 electrons x Angstroem
 Tr[quadrupol]        18.127962

 energy correction for charged system         0.000000 eV
 dipol+quadrupol energy correction           -0.000674 eV
 added-field ion interaction          0.003088 eV  (added to PSCEN)


  free energy =  -0.874904445097E+02  energy without entropy=  -0.874904445097E+02


--------------------------------------------------------------------------------------------------------




--------------------------------------- Iteration     37(   2)  ---------------------------------------


    POTLOK:  cpu time    0.0890: real time    0.0891
    SETDIJ:  cpu time    0.0019: real time    0.0019
    EDDIAG:  cpu time    0.0717: real time    0.0717
  RMM-DIIS:  cpu time    0.3021: real time    0.3022
    ORTHCH:  cpu time    0.0162: real time    0.0162
       DOS:  cpu time    0.0002: real time    0.0002
    CHARGE:  cpu time    0.0371: real time    0.0371
    MIXING:  cpu time    0.0030: real time    0.0030
    --------------------------------------------
      LOOP:  cpu time    0.5212: real time    0.5214

 eigenvalue-minimisations  :    70
 total energy-change (2. order) :-0.8275019E-06  (-0.1158811E-05)
 number of electron      48.0001178 magnetization 
 augmentation part        4.1609550 magnetization 

 DIPCOR: dipole corrections for dipol
 direction  1 min pos     1, direction  2 min pos     1, direction  3 min pos     1,
 dipolmoment           0.313538      0.256110     -0.121670 electrons x Angstroem
 Tr[quadrupol]        18.127981

 energy correction for charged system         0.000000 eV
 dipol+quadrupol energy correction           -0.000674 eV
 added-field ion interaction          0.003087 eV  (added to PSCEN)


 eigenvalues of (default mixing * dielectric matrix)
  average eigenvalue GAMMA=   1.2330
  1.2330

  free energy =  -0.874904453372E+02  energy without entropy=  -0.874904453372E+02


--------------------------------------------------------------------------------------------------------




--------------------------------------- Iteration     37(   3)  ---------------------------------------


    POTLOK:  cpu time    0.0890: real time    0.0891
    SETDIJ:  cpu time    0.0016: real time    0.0016
    EDDIAG:  cpu time    0.0708: real time    0.0708
  RMM-DIIS:  cpu time    0.2097: real time    0.2097
    ORTHCH:  cpu time    0.0126: real time    0.0126
       DOS:  cpu time    0.0005: real time    0.0005
    CHARGE:  cpu time    0.0266: real time    0.0266
    MIXING:  cpu time    0.0032: real time    0.0032
    --------------------------------------------
      LOOP:  cpu time    0.4139: real time    0.4140

 eigenvalue-minimisations  :    48
 total energy-change (2. order) :-0.1140124E-06  (-0.3037583E-07)
 number of electron      48.0001178 magnetization 
 augmentation part        4.1609512 magnetization 

 DIPCOR: dipole corrections for dipol
 direction  1 min pos     1, direction  2 min pos     1, direction  3 min pos     1,
 dipolmoment           0.313521      0.256143     -0.121664 electrons x Angstroem
 Tr[quadrupol]        18.128037

 energy correction for charged system         0.000000 eV
 dipol+quadrupol energy correction           -0.000674 eV
 added-field ion interaction          0.003087 eV  (added to PSCEN)


 eigenvalues of (default mixing * dielectric matrix)
  average eigenvalue GAMMA=   1.7206
  1.0394  2.4017

  free energy =  -0.874904454512E+02  energy without entropy=  -0.874904454512E+02


--------------------------------------------------------------------------------------------------------




--------------------------------------- Iteration     37(   4)  ---------------------------------------


    POTLOK:  cpu time    0.0892: real time    0.0893
    SETDIJ:  cpu time    0.0018: real time    0.0018
    EDDIAG:  cpu time    0.0703: real time    0.0703
  RMM-DIIS:  cpu time    0.2128: real time    0.2128
    ORTHCH:  cpu time    0.0124: real time    0.0124
       DOS:  cpu time    0.0006: real time    0.0006
    --------------------------------------------
      LOOP:  cpu time    0.3870: real time    0.3872

 eigenvalue-minimisations  :    48
 total energy-change (2. order) :-0.1709636E-06  (-0.1761928E-07)
 number of electron      48.0001178 magnetization 
 augmentation part        4.1609512 magnetization 

 DIPCOR: dipole corrections for dipol
 direction  1 min pos     1, direction  2 min pos     1, direction  3 min pos     1,
 dipolmoment           0.313500      0.256196     -0.121657 electrons x Angstroem
 Tr[quadrupol]        18.128142

 energy correction for charged system         0.000000 eV
 dipol+quadrupol energy correction           -0.000674 eV
 added-field ion interaction          0.003087 eV  (added to PSCEN)


  free energy =  -0.874904456222E+02  energy without entropy=  -0.874904456222E+02


--------------------------------------------------------------------------------------------------------




 average (electrostatic) potential at core
  the test charge radii are     0.5201  0.7215
  (the norm of the test charge is              1.0000)
       1 -43.8490       2 -43.3992       3 -43.9382       4 -43.8316       5 -43.3446
       6 -44.4440       7 -43.8165       8 -44.9716       9 -44.8680      10 -43.8396
      11 -43.3071      12 -44.8738      13 -80.2141      14 -80.2838      15 -80.2913
      16 -80.8796      17 -80.7779      18 -80.7627
 
 
 
 E-fermi :  -6.4101     XC(G=0):  -0.3154     alpha+bet : -0.0975


 k-point     1 :       0.0000    0.0000    0.0000
  band No.  band energies     occupation 
      1     -25.6887      2.00000
      2     -25.3312      2.00000
      3     -25.2267      2.00000
      4     -24.9885      2.00000
      5     -24.7953      2.00000
      6     -24.5120      2.00000
      7     -13.6878      2.00000
      8     -13.2885      2.00000
      9     -13.0321      2.00000
     10     -12.9610      2.00000
     11     -12.5646      2.00000
     12     -12.4448      2.00000
     13     -10.5871      2.00000
     14      -9.7730      2.00000
     15      -9.6010      2.00000
     16      -9.1732      2.00000
     17      -9.0749      2.00000
     18      -8.4699      2.00000
     19      -7.6695      2.00000
     20      -7.5954      2.00000
     21      -7.4903      2.00000
     22      -7.1875      2.00000
     23      -6.9755      2.00000
     24      -6.9114      2.00000
     25      -1.2253      0.00000
     26      -0.5088      0.00000
     27      -0.4509      0.00000
     28      -0.1052      0.00000
     29       0.0517      0.00000
     30       0.2160      0.00000
     31       0.3135      0.00000
     32       0.4289      0.00000
     33       0.4458      0.00000
     34       0.4572      0.00000
     35       0.5203      0.00000
     36       0.5485      0.00000


--------------------------------------------------------------------------------------------------------


 soft charge-density along one line, spin component           1
         0         1         2         3         4         5         6         7         8         9
 total charge-density along one line
 
 pseudopotential strength for first ion, spin component:           1
 -2.374  -4.098  -0.002   0.000  -0.001
 -4.098  -6.987  -0.007   0.000  -0.004
 -0.002  -0.007  -0.320  -0.000   0.003
  0.000   0.000  -0.000  -0.326  -0.000
 -0.001  -0.004   0.003  -0.000  -0.324
 total augmentation occupancy for first ion, spin component:           1
  3.959  -0.897   0.601  -0.026   0.333
 -0.897   0.245  -0.133   0.007  -0.070
  0.601  -0.133   0.109  -0.004   0.046
 -0.026   0.007  -0.004   0.032  -0.006
  0.333  -0.070   0.046  -0.006   0.050


------------------------ aborting loop because EDIFF is reached ----------------------------------------


 


 total charge     
 
# of ion       s       p       d       tot
------------------------------------------
    1        0.602   0.113   0.000   0.715
    2        0.579   0.113   0.000   0.692
    3        0.604   0.113   0.000   0.717
    4        0.599   0.114   0.000   0.713
    5        0.573   0.113   0.000   0.685
    6        0.627   0.115   0.000   0.742
    7        0.567   0.112   0.000   0.679
    8        0.625   0.115   0.000   0.740
    9        0.626   0.114   0.000   0.740
   10        0.573   0.113   0.000   0.686
   11        0.544   0.107   0.000   0.651
   12        0.624   0.115   0.000   0.739
   13        1.584   3.643   0.000   5.227
   14        1.586   3.638   0.000   5.224
   15        1.585   3.637   0.000   5.221
   16        1.583   3.642   0.000   5.225
   17        1.585   3.638   0.000   5.223
   18        1.581   3.642   0.000   5.223
--------------------------------------------------
tot         16.647  23.196   0.000  39.843
 
    CHARGE:  cpu time    0.0270: real time    0.0270
    FORLOC:  cpu time    0.0094: real time    0.0094
    FORNL :  cpu time    0.0826: real time    0.0826
    STRESS:  cpu time    0.2000: real time    0.2001
    FORCOR:  cpu time    0.0807: real time    0.0807
    FORHAR:  cpu time    0.0264: real time    0.0264
    MIXING:  cpu time    0.0028: real time    0.0028
    OFIELD:  cpu time    0.0000: real time    0.0000

  FORCE on cell =-STRESS in cart. coord.  units (eV):
  Direction    XX          YY          ZZ          XY          YZ          ZX
  --------------------------------------------------------------------------------------
  Alpha Z     1.00913     1.00913     1.00913
  Ewald    1727.86153   891.37605   521.04975     6.11666    53.10035   -40.59247
  Hartree  2440.88487  1603.21145  1462.66770     9.69112    -4.24758    10.08924
  E(xc)    -217.15190  -217.15412  -218.13649    -0.01903     0.29086    -0.28599
  Local   -4711.99674 -3007.53808 -2570.29968   -14.63465   -31.58549    16.36846
  n-local  -184.93144  -184.57010  -185.80711    -0.14994     0.79899    -0.59984
  augment    41.28595    39.21648    44.07555    -0.07153    -1.13399     0.92018
  Kinetic   898.42664   869.97201   940.65902    -0.91136   -17.14234    14.08334
  Fock        0.00000     0.00000     0.00000     0.00000     0.00000     0.00000
  -------------------------------------------------------------------------------------
  Total      -4.61196    -4.47718    -4.78212     0.02127     0.08080    -0.01708
  in kB      -0.92365    -0.89666    -0.95773     0.00426     0.01618    -0.00342
  external pressure =       -0.93 kB  Pullay stress =        0.00 kB


 VOLUME and BASIS-vectors are now :
 -----------------------------------------------------------------------------
  energy-cutoff  :      400.00
  volume of cell :     8000.00
      direct lattice vectors                 reciprocal lattice vectors
    20.000000000  0.000000000  0.000000000     0.050000000  0.000000000  0.000000000
     0.000000000 20.000000000  0.000000000     0.000000000  0.050000000  0.000000000
     0.000000000  0.000000000 20.000000000     0.000000000  0.000000000  0.050000000

  length of vectors
    20.000000000 20.000000000 20.000000000     0.050000000  0.050000000  0.050000000


 FORCES acting on ions
    electron-ion (+dipol)            ewald-force                    non-local-force                 convergence-correction
 -----------------------------------------------------------------------------------------------
   0.260E+02 0.686E+02 0.409E+02   -.300E+02 -.756E+02 -.407E+02   0.395E+01 0.693E+01 -.261E+00   0.376E-04 -.135E-04 -.235E-04
   -.806E+02 0.115E+01 0.440E+01   0.872E+02 -.229E+01 -.950E+00   -.660E+01 0.114E+01 -.346E+01   -.348E-04 -.370E-04 -.446E-04
   0.269E+02 -.699E+02 -.356E+02   -.303E+02 0.771E+02 0.346E+02   0.339E+01 -.721E+01 0.963E+00   0.444E-04 -.761E-04 0.385E-05
   0.272E+02 0.717E+02 0.141E+02   -.308E+02 -.765E+02 -.192E+02   0.367E+01 0.480E+01 0.513E+01   0.452E-04 0.954E-05 -.172E-05
   0.328E+01 0.250E+02 -.586E+02   -.834E+01 -.271E+02 0.634E+02   0.507E+01 0.214E+01 -.483E+01   -.147E-04 -.809E-04 -.170E-05
   -.940E+02 0.638E+02 0.279E+01   0.100E+03 -.694E+02 -.313E+01   -.613E+01 0.556E+01 0.340E+00   -.402E-04 -.519E-04 -.109E-04
   0.737E+02 0.147E+01 0.107E+01   -.798E+02 0.225E+01 0.128E+00   0.605E+01 -.372E+01 -.121E+01   0.451E-04 -.203E-04 -.853E-05
   0.268E+02 0.109E+03 0.394E+02   -.287E+02 -.117E+03 -.422E+02   0.187E+01 0.761E+01 0.276E+01   0.411E-04 -.244E-04 -.181E-04
   0.773E+02 0.121E+02 -.812E+02   -.817E+02 -.132E+02 0.881E+02   0.438E+01 0.109E+01 -.695E+01   0.300E-04 -.160E-04 -.409E-04
   -.808E+00 -.625E+02 -.124E+02   0.571E+01 0.679E+02 0.135E+02   -.491E+01 -.544E+01 -.107E+01   -.285E-04 -.668E-04 0.179E-04
   -.273E+02 -.232E+02 0.497E+02   0.310E+02 0.212E+02 -.546E+02   -.366E+01 0.205E+01 0.488E+01   0.878E-04 -.854E-04 -.645E-04
   0.409E+01 -.120E+03 -.906E+01   -.391E+01 0.128E+03 0.933E+01   -.180E+00 -.830E+01 -.274E+00   0.293E-04 0.430E-04 0.264E-04
   -.651E+02 -.102E+03 0.259E+03   0.561E+02 0.137E+03 -.281E+03   0.895E+01 -.347E+02 0.221E+02   0.435E-05 -.478E-04 -.154E-03
   -.708E+02 0.924E+02 -.265E+03   0.100E+03 -.105E+03 0.296E+03   -.293E+02 0.121E+02 -.308E+02   -.133E-04 0.189E-03 -.381E-03
   -.238E+03 -.508E+02 0.396E+01   0.235E+03 0.888E+02 -.220E+02   0.314E+01 -.380E+02 0.181E+02   0.594E-04 -.852E-03 -.736E-04
   0.135E+02 0.206E+03 0.722E+02   0.224E+02 -.189E+03 -.656E+02   -.359E+02 -.177E+02 -.663E+01   0.434E-03 0.692E-04 -.104E-03
   0.250E+03 0.101E+02 0.462E+02   -.256E+03 -.267E+02 -.852E+02   0.570E+01 0.166E+02 0.390E+02   -.340E-03 -.217E-03 0.342E-03
   0.727E+02 -.206E+03 -.872E+02   -.883E+02 0.179E+03 0.109E+03   0.156E+02 0.268E+02 -.220E+02   0.115E-03 -.431E-03 0.433E-03
 -----------------------------------------------------------------------------------------------
   0.248E+02 0.282E+02 -.157E+02   0.568E-13 -.568E-13 0.853E-13   -.248E+02 -.282E+02 0.157E+02   0.501E-03 -.171E-02 -.105E-03
 
 
 POSITION                                       TOTAL-FORCE (eV/Angst)
 -----------------------------------------------------------------------------------
     10.31366      9.68462      8.48530         0.001710      0.003720     -0.001885
     11.64981     10.37187      8.90722         0.003155      0.001579     -0.000965
     10.20613     10.29632     11.53110        -0.006000      0.005169      0.001702
     10.16404      8.84322     11.02050        -0.002799     -0.003083     -0.003018
     12.14658      9.73783     10.85670         0.006897     -0.004773     -0.000429
     13.53156      9.39050     10.16876        -0.007331     -0.004558     -0.000999
      8.33794      8.83492      9.58877        -0.000062      0.000797     -0.004894
      8.95451      7.45198      9.10557         0.000900     -0.001663     -0.001143
      6.69620      9.93669     10.77425         0.002092      0.001568      0.000271
      7.85074     10.78527     10.12070        -0.001614      0.001257      0.005535
      9.92466     11.35978      9.53687        -0.001670      0.001671      0.001420
      9.36742     12.63918     10.33388         0.001598      0.001219      0.002029
     10.78653     10.54743      8.43858         0.000057      0.001042      0.001922
     10.63318      9.42082     11.66841         0.007125     -0.002744      0.006127
     12.82751     10.05898     10.19500         0.000319      0.005327     -0.003693
      9.19613      8.33664      9.42607        -0.003119     -0.000893      0.000914
      7.19353     10.05058      9.94672         0.000563     -0.004791     -0.004221
      9.33668     11.66823     10.31823        -0.001822     -0.000844      0.001328
 -----------------------------------------------------------------------------------
    total drift:                               -0.004932      0.000761     -0.021818


--------------------------------------------------------------------------------------------------------



  FREE ENERGIE OF THE ION-ELECTRON SYSTEM (eV)
  ---------------------------------------------------
  free  energy   TOTEN  =       -87.49044562 eV

  energy  without entropy=      -87.49044562  energy(sigma->0) =      -87.49044562
 
 d Force = 0.9209543E-05[ 0.756E-05, 0.109E-04]  d Energy = 0.9347160E-05-0.138E-06
 d Force =-0.1632625E-01[-0.163E-01,-0.163E-01]  d Ewald  =-0.1632625E-01 0.508E-09


--------------------------------------------------------------------------------------------------------


    POTLOK:  cpu time    0.0903: real time    0.0904


--------------------------------------------------------------------------------------------------------


 Conjugate gradient step on ions:
 trial-energy change:   -0.000009  1 .order   -0.000009   -0.000011   -0.000008
  (g-gl).g = 0.417E-04      g.g   = 0.359E-04  gl.gl    = 0.109E-03
 g(Force)  = 0.359E-04   g(Stress)= 0.000E+00 ortho     =-0.237E-05
 gamma     =   0.38348
 trial     =   0.30978
 opt step  =   1.02218  (harmonic =   1.02218) maximal distance =0.00082362
 next E    =   -87.490454   (d E  =  -0.00002)


--------------------------------------------------------------------------------------------------------


  
 reached required accuracy - stopping structural energy minimisation
     LOOP+:  cpu time    2.3859: real time    2.3905
    4ORBIT:  cpu time    0.0000: real time    0.0000
 


 total charge     
 
# of ion       s       p       d       tot
------------------------------------------
    1        0.602   0.113   0.000   0.715
    2        0.579   0.113   0.000   0.692
    3        0.604   0.113   0.000   0.717
    4        0.599   0.114   0.000   0.713
    5        0.573   0.113   0.000   0.685
    6        0.627   0.115   0.000   0.742
    7        0.567   0.112   0.000   0.679
    8        0.625   0.115   0.000   0.740
    9        0.626   0.114   0.000   0.740
   10        0.573   0.113   0.000   0.686
   11        0.544   0.107   0.000   0.651
   12        0.624   0.115   0.000   0.739
   13        1.584   3.643   0.000   5.227
   14        1.586   3.638   0.000   5.224
   15        1.585   3.637   0.000   5.221
   16        1.583   3.642   0.000   5.225
   17        1.585   3.638   0.000   5.223
   18        1.581   3.642   0.000   5.223
--------------------------------------------------
tot         16.647  23.196   0.000  39.843
 

 total amount of memory used by VASP MPI-rank0    52198. kBytes
=======================================================================

   base      :      30000. kBytes
   nonl-proj :       5035. kBytes
   fftplans  :       6155. kBytes
   grid      :       9257. kBytes
   one-center:          6. kBytes
   wavefun   :       1745. kBytes
 
  
  
 General timing and accounting informations for this job:
 ========================================================
  
                  Total CPU time used (sec):      111.445
                            User time (sec):      109.399
                          System time (sec):        2.045
                         Elapsed time (sec):      112.442
  
                   Maximum memory used (kb):      109276.
                   Average memory used (kb):           0.
  
                          Minor page faults:       682627
                          Major page faults:            0
                 Voluntary context switches:         2636
