PROCAR lm decomposed
# of k-points:    1         # of bands:   36         # of ions:   18

 k-point     1 :    0.00000000 0.00000000 0.00000000     weight = 1.00000000

band     1 # energy  -25.68870248 # occ.  2.00000000
 
ion      s     py     pz     px    dxy    dyz    dz2    dxz  x2-y2    tot
    1  0.005  0.001  0.000  0.000  0.000  0.000  0.000  0.000  0.000  0.006
    2  0.004  0.000  0.000  0.001  0.000  0.000  0.000  0.000  0.000  0.005
    3  0.004  0.000  0.000  0.000  0.000  0.000  0.000  0.000  0.000  0.004
    4  0.004  0.000  0.000  0.000  0.000  0.000  0.000  0.000  0.000  0.005
    5  0.001  0.000  0.000  0.000  0.000  0.000  0.000  0.000  0.000  0.001
    6  0.001  0.000  0.000  0.000  0.000  0.000  0.000  0.000  0.000  0.001
    7  0.034  0.001  0.000  0.003  0.000  0.000  0.000  0.000  0.000  0.039
    8  0.033  0.006  0.001  0.000  0.000  0.000  0.000  0.000  0.000  0.040
    9  0.033  0.000  0.004  0.002  0.000  0.000  0.000  0.000  0.000  0.039
   10  0.032  0.003  0.000  0.002  0.000  0.000  0.000  0.000  0.000  0.037
   11  0.014  0.000  0.001  0.001  0.000  0.000  0.000  0.000  0.000  0.016
   12  0.016  0.003  0.000  0.000  0.000  0.000  0.000  0.000  0.000  0.019
   13  0.035  0.001  0.001  0.000  0.000  0.000  0.000  0.000  0.000  0.036
   14  0.025  0.000  0.001  0.001  0.000  0.000  0.000  0.000  0.000  0.026
   15  0.006  0.000  0.000  0.000  0.000  0.000  0.000  0.000  0.000  0.006
   16  0.256  0.001  0.000  0.008  0.000  0.000  0.000  0.000  0.000  0.266
   17  0.253  0.002  0.008  0.000  0.000  0.000  0.000  0.000  0.000  0.263
   18  0.129  0.001  0.002  0.001  0.000  0.000  0.000  0.000  0.000  0.132
tot    0.885  0.020  0.018  0.019  0.000  0.000  0.000  0.000  0.000  0.943
 
band     2 # energy  -25.33116609 # occ.  2.00000000
 
ion      s     py     pz     px    dxy    dyz    dz2    dxz  x2-y2    tot
    1  0.005  0.001  0.000  0.000  0.000  0.000  0.000  0.000  0.000  0.007
    2  0.007  0.000  0.000  0.001  0.000  0.000  0.000  0.000  0.000  0.008
    3  0.002  0.000  0.000  0.000  0.000  0.000  0.000  0.000  0.000  0.002
    4  0.000  0.000  0.000  0.000  0.000  0.000  0.000  0.000  0.000  0.000
    5  0.002  0.000  0.000  0.000  0.000  0.000  0.000  0.000  0.000  0.002
    6  0.002  0.000  0.000  0.000  0.000  0.000  0.000  0.000  0.000  0.002
    7  0.031  0.002  0.000  0.004  0.000  0.000  0.000  0.000  0.000  0.037
    8  0.040  0.007  0.001  0.000  0.000  0.000  0.000  0.000  0.000  0.048
    9  0.000  0.000  0.000  0.000  0.000  0.000  0.000  0.000  0.000  0.000
   10  0.000  0.000  0.000  0.000  0.000  0.000  0.000  0.000  0.000  0.000
   11  0.038  0.001  0.003  0.002  0.000  0.000  0.000  0.000  0.000  0.044
   12  0.048  0.010  0.000  0.000  0.000  0.000  0.000  0.000  0.000  0.058
   13  0.056  0.001  0.001  0.000  0.000  0.000  0.000  0.000  0.000  0.058
   14  0.006  0.000  0.000  0.000  0.000  0.000  0.000  0.000  0.000  0.007
   15  0.016  0.000  0.000  0.000  0.000  0.000  0.000  0.000  0.000  0.016
   16  0.287  0.003  0.000  0.009  0.000  0.000  0.000  0.000  0.000  0.299
   17  0.001  0.000  0.000  0.000  0.000  0.000  0.000  0.000  0.000  0.001
   18  0.356  0.006  0.004  0.003  0.000  0.000  0.000  0.000  0.000  0.369
tot    0.896  0.031  0.011  0.020  0.000  0.000  0.000  0.000  0.000  0.957
 
band     3 # energy  -25.22667651 # occ.  2.00000000
 
ion      s     py     pz     px    dxy    dyz    dz2    dxz  x2-y2    tot
    1  0.009  0.001  0.000  0.000  0.000  0.000  0.000  0.000  0.000  0.011
    2  0.009  0.000  0.000  0.001  0.000  0.000  0.000  0.000  0.000  0.010
    3  0.014  0.002  0.000  0.000  0.000  0.000  0.000  0.000  0.000  0.016
    4  0.015  0.001  0.001  0.000  0.000  0.000  0.000  0.000  0.000  0.017
    5  0.012  0.000  0.001  0.001  0.000  0.000  0.000  0.000  0.000  0.014
    6  0.011  0.001  0.000  0.001  0.000  0.000  0.000  0.000  0.000  0.013
    7  0.006  0.001  0.000  0.002  0.000  0.000  0.000  0.000  0.000  0.009
    8  0.014  0.002  0.000  0.000  0.000  0.000  0.000  0.000  0.000  0.017
    9  0.050  0.000  0.007  0.003  0.000  0.000  0.000  0.000  0.000  0.060
   10  0.039  0.004  0.000  0.004  0.000  0.000  0.000  0.000  0.000  0.046
   11  0.001  0.000  0.000  0.000  0.000  0.000  0.000  0.000  0.000  0.001
   12  0.000  0.000  0.000  0.000  0.000  0.000  0.000  0.000  0.000  0.000
   13  0.065  0.002  0.001  0.000  0.000  0.000  0.000  0.000  0.000  0.068
   14  0.108  0.000  0.003  0.002  0.000  0.000  0.000  0.000  0.000  0.113
   15  0.087  0.003  0.001  0.000  0.000  0.000  0.000  0.000  0.000  0.090
   16  0.100  0.001  0.000  0.002  0.000  0.000  0.000  0.000  0.000  0.103
   17  0.357  0.003  0.013  0.000  0.000  0.000  0.000  0.000  0.000  0.373
   18  0.001  0.000  0.000  0.000  0.000  0.000  0.000  0.000  0.000  0.002
tot    0.897  0.022  0.027  0.017  0.000  0.000  0.000  0.000  0.000  0.963
 
band     4 # energy  -24.98854402 # occ.  2.00000000
 
ion      s     py     pz     px    dxy    dyz    dz2    dxz  x2-y2    tot
    1  0.001  0.000  0.000  0.000  0.000  0.000  0.000  0.000  0.000  0.001
    2  0.000  0.000  0.000  0.000  0.000  0.000  0.000  0.000  0.000  0.000
    3  0.021  0.004  0.000  0.001  0.000  0.000  0.000  0.000  0.000  0.025
    4  0.020  0.002  0.002  0.001  0.000  0.000  0.000  0.000  0.000  0.025
    5  0.033  0.000  0.002  0.002  0.000  0.000  0.000  0.000  0.000  0.038
    6  0.034  0.003  0.000  0.004  0.000  0.000  0.000  0.000  0.000  0.041
    7  0.005  0.001  0.000  0.001  0.000  0.000  0.000  0.000  0.000  0.007
    8  0.010  0.002  0.000  0.000  0.000  0.000  0.000  0.000  0.000  0.012
    9  0.014  0.000  0.002  0.001  0.000  0.000  0.000  0.000  0.000  0.017
   10  0.008  0.001  0.000  0.001  0.000  0.000  0.000  0.000  0.000  0.011
   11  0.013  0.000  0.001  0.001  0.000  0.000  0.000  0.000  0.000  0.015
   12  0.018  0.004  0.000  0.000  0.000  0.000  0.000  0.000  0.000  0.022
   13  0.004  0.000  0.000  0.000  0.000  0.000  0.000  0.000  0.000  0.005
   14  0.179  0.001  0.004  0.003  0.000  0.000  0.000  0.000  0.000  0.187
   15  0.254  0.009  0.003  0.000  0.000  0.000  0.000  0.000  0.000  0.265
   16  0.065  0.001  0.000  0.002  0.000  0.000  0.000  0.000  0.000  0.068
   17  0.097  0.001  0.004  0.000  0.000  0.000  0.000  0.000  0.000  0.102
   18  0.125  0.003  0.002  0.001  0.000  0.000  0.000  0.000  0.000  0.130
tot    0.901  0.030  0.020  0.018  0.000  0.000  0.000  0.000  0.000  0.969
 
band     5 # energy  -24.79529075 # occ.  2.00000000
 
ion      s     py     pz     px    dxy    dyz    dz2    dxz  x2-y2    tot
    1  0.032  0.005  0.000  0.002  0.000  0.000  0.000  0.000  0.000  0.038
    2  0.033  0.000  0.001  0.004  0.000  0.000  0.000  0.000  0.000  0.039
    3  0.040  0.006  0.000  0.001  0.000  0.000  0.000  0.000  0.000  0.048
    4  0.038  0.003  0.003  0.001  0.000  0.000  0.000  0.000  0.000  0.045
    5  0.008  0.000  0.001  0.002  0.000  0.000  0.000  0.000  0.000  0.012
    6  0.017  0.001  0.000  0.002  0.000  0.000  0.000  0.000  0.000  0.020
    7  0.000  0.000  0.000  0.000  0.000  0.000  0.000  0.000  0.000  0.000
    8  0.000  0.000  0.000  0.000  0.000  0.000  0.000  0.000  0.000  0.000
    9  0.001  0.000  0.000  0.000  0.000  0.000  0.000  0.000  0.000  0.001
   10  0.000  0.000  0.000  0.000  0.000  0.000  0.000  0.000  0.000  0.000
   11  0.001  0.000  0.001  0.000  0.000  0.000  0.000  0.000  0.000  0.002
   12  0.006  0.001  0.000  0.000  0.000  0.000  0.000  0.000  0.000  0.007
   13  0.255  0.008  0.003  0.001  0.000  0.000  0.000  0.000  0.000  0.267
   14  0.303  0.001  0.006  0.008  0.000  0.000  0.000  0.000  0.000  0.318
   15  0.121  0.004  0.000  0.000  0.000  0.000  0.000  0.000  0.000  0.125
   16  0.000  0.000  0.000  0.000  0.000  0.000  0.000  0.000  0.000  0.000
   17  0.006  0.000  0.000  0.000  0.000  0.000  0.000  0.000  0.000  0.006
   18  0.041  0.001  0.000  0.000  0.000  0.000  0.000  0.000  0.000  0.042
tot    0.901  0.031  0.016  0.022  0.000  0.000  0.000  0.000  0.000  0.970
 
band     6 # energy  -24.51196624 # occ.  2.00000000
 
ion      s     py     pz     px    dxy    dyz    dz2    dxz  x2-y2    tot
    1  0.039  0.006  0.000  0.002  0.000  0.000  0.000  0.000  0.000  0.047
    2  0.029  0.000  0.002  0.006  0.000  0.000  0.000  0.000  0.000  0.037
    3  0.012  0.002  0.000  0.000  0.000  0.000  0.000  0.000  0.000  0.014
    4  0.012  0.001  0.001  0.000  0.000  0.000  0.000  0.000  0.000  0.014
    5  0.022  0.000  0.002  0.003  0.000  0.000  0.000  0.000  0.000  0.028
    6  0.035  0.003  0.000  0.004  0.000  0.000  0.000  0.000  0.000  0.042
    7  0.002  0.000  0.000  0.000  0.000  0.000  0.000  0.000  0.000  0.002
    8  0.003  0.000  0.000  0.000  0.000  0.000  0.000  0.000  0.000  0.003
    9  0.001  0.000  0.000  0.000  0.000  0.000  0.000  0.000  0.000  0.001
   10  0.000  0.000  0.000  0.000  0.000  0.000  0.000  0.000  0.000  0.001
   11  0.003  0.000  0.001  0.001  0.000  0.000  0.000  0.000  0.000  0.005
   12  0.012  0.002  0.000  0.000  0.000  0.000  0.000  0.000  0.000  0.014
   13  0.305  0.010  0.003  0.001  0.000  0.000  0.000  0.000  0.000  0.318
   14  0.096  0.000  0.002  0.003  0.000  0.000  0.000  0.000  0.000  0.101
   15  0.239  0.009  0.002  0.000  0.000  0.000  0.000  0.000  0.000  0.251
   16  0.016  0.000  0.000  0.001  0.000  0.000  0.000  0.000  0.000  0.018
   17  0.008  0.000  0.000  0.000  0.000  0.000  0.000  0.000  0.000  0.008
   18  0.075  0.002  0.001  0.000  0.000  0.000  0.000  0.000  0.000  0.079
tot    0.909  0.038  0.014  0.022  0.000  0.000  0.000  0.000  0.000  0.983
 
band     7 # energy  -13.68782226 # occ.  2.00000000
 
ion      s     py     pz     px    dxy    dyz    dz2    dxz  x2-y2    tot
    1  0.002  0.000  0.000  0.000  0.000  0.000  0.000  0.000  0.000  0.002
    2  0.004  0.000  0.000  0.000  0.000  0.000  0.000  0.000  0.000  0.005
    3  0.000  0.000  0.000  0.000  0.000  0.000  0.000  0.000  0.000  0.000
    4  0.000  0.000  0.000  0.000  0.000  0.000  0.000  0.000  0.000  0.000
    5  0.000  0.000  0.000  0.000  0.000  0.000  0.000  0.000  0.000  0.000
    6  0.001  0.000  0.000  0.000  0.000  0.000  0.000  0.000  0.000  0.001
    7  0.070  0.000  0.000  0.006  0.000  0.000  0.000  0.000  0.000  0.076
    8  0.076  0.006  0.001  0.002  0.000  0.000  0.000  0.000  0.000  0.085
    9  0.067  0.000  0.007  0.001  0.000  0.000  0.000  0.000  0.000  0.074
   10  0.041  0.002  0.001  0.000  0.000  0.000  0.000  0.000  0.000  0.045
   11  0.016  0.000  0.001  0.001  0.000  0.000  0.000  0.000  0.000  0.018
   12  0.034  0.004  0.000  0.000  0.000  0.000  0.000  0.000  0.000  0.038
   13  0.001  0.000  0.000  0.011  0.000  0.000  0.000  0.000  0.000  0.012
   14  0.001  0.000  0.000  0.000  0.000  0.000  0.000  0.000  0.000  0.002
   15  0.000  0.000  0.000  0.001  0.000  0.000  0.000  0.000  0.000  0.001
   16  0.000  0.190  0.021  0.023  0.000  0.000  0.000  0.000  0.000  0.234
   17  0.000  0.017  0.048  0.118  0.000  0.000  0.000  0.000  0.000  0.183
   18  0.000  0.079  0.012  0.000  0.000  0.000  0.000  0.000  0.000  0.092
tot    0.313  0.298  0.091  0.164  0.000  0.000  0.000  0.000  0.000  0.867
 
band     8 # energy  -13.28853612 # occ.  2.00000000
 
ion      s     py     pz     px    dxy    dyz    dz2    dxz  x2-y2    tot
    1  0.003  0.000  0.000  0.000  0.000  0.000  0.000  0.000  0.000  0.004
    2  0.000  0.000  0.000  0.000  0.000  0.000  0.000  0.000  0.000  0.000
    3  0.012  0.000  0.000  0.000  0.000  0.000  0.000  0.000  0.000  0.012
    4  0.012  0.000  0.000  0.000  0.000  0.000  0.000  0.000  0.000  0.013
    5  0.001  0.000  0.000  0.000  0.000  0.000  0.000  0.000  0.000  0.001
    6  0.001  0.000  0.000  0.000  0.000  0.000  0.000  0.000  0.000  0.001
    7  0.051  0.000  0.000  0.005  0.000  0.000  0.000  0.000  0.000  0.056
    8  0.064  0.005  0.001  0.002  0.000  0.000  0.000  0.000  0.000  0.071
    9  0.005  0.000  0.001  0.000  0.000  0.000  0.000  0.000  0.000  0.006
   10  0.017  0.001  0.000  0.000  0.000  0.000  0.000  0.000  0.000  0.018
   11  0.063  0.000  0.003  0.002  0.000  0.000  0.000  0.000  0.000  0.068
   12  0.089  0.009  0.000  0.000  0.000  0.000  0.000  0.000  0.000  0.099
   13  0.000  0.009  0.003  0.000  0.000  0.000  0.000  0.000  0.000  0.012
   14  0.000  0.031  0.003  0.000  0.000  0.000  0.000  0.000  0.000  0.034
   15  0.000  0.000  0.001  0.003  0.000  0.000  0.000  0.000  0.000  0.004
   16  0.000  0.155  0.023  0.016  0.000  0.000  0.000  0.000  0.000  0.194
   17  0.000  0.026  0.001  0.009  0.000  0.000  0.000  0.000  0.000  0.036
   18  0.000  0.202  0.041  0.015  0.000  0.000  0.000  0.000  0.000  0.258
tot    0.320  0.438  0.076  0.053  0.000  0.000  0.000  0.000  0.000  0.888
 
band     9 # energy  -13.03206448 # occ.  2.00000000
 
ion      s     py     pz     px    dxy    dyz    dz2    dxz  x2-y2    tot
    1  0.002  0.000  0.000  0.000  0.000  0.000  0.000  0.000  0.000  0.002
    2  0.011  0.000  0.000  0.001  0.000  0.000  0.000  0.000  0.000  0.012
    3  0.001  0.000  0.000  0.000  0.000  0.000  0.000  0.000  0.000  0.001
    4  0.000  0.000  0.000  0.000  0.000  0.000  0.000  0.000  0.000  0.000
    5  0.004  0.000  0.000  0.000  0.000  0.000  0.000  0.000  0.000  0.004
    6  0.006  0.000  0.000  0.000  0.000  0.000  0.000  0.000  0.000  0.007
    7  0.009  0.000  0.000  0.001  0.000  0.000  0.000  0.000  0.000  0.010
    8  0.014  0.001  0.000  0.000  0.000  0.000  0.000  0.000  0.000  0.015
    9  0.084  0.000  0.008  0.001  0.000  0.000  0.000  0.000  0.000  0.093
   10  0.095  0.004  0.001  0.003  0.000  0.000  0.000  0.000  0.000  0.104
   11  0.060  0.000  0.003  0.001  0.000  0.000  0.000  0.000  0.000  0.065
   12  0.031  0.003  0.000  0.001  0.000  0.000  0.000  0.000  0.000  0.035
   13  0.000  0.000  0.000  0.027  0.000  0.000  0.000  0.000  0.000  0.028
   14  0.000  0.000  0.000  0.001  0.000  0.000  0.000  0.000  0.000  0.002
   15  0.000  0.002  0.001  0.014  0.000  0.000  0.000  0.000  0.000  0.016
   16  0.000  0.035  0.004  0.003  0.000  0.000  0.000  0.000  0.000  0.043
   17  0.000  0.102  0.050  0.145  0.000  0.000  0.000  0.000  0.000  0.299
   18  0.000  0.066  0.039  0.051  0.000  0.000  0.000  0.000  0.000  0.156
tot    0.317  0.216  0.108  0.249  0.000  0.000  0.000  0.000  0.000  0.890
 
band    10 # energy  -12.96097142 # occ.  2.00000000
 
ion      s     py     pz     px    dxy    dyz    dz2    dxz  x2-y2    tot
    1  0.025  0.003  0.000  0.000  0.000  0.000  0.000  0.000  0.000  0.028
    2  0.030  0.000  0.000  0.001  0.000  0.000  0.000  0.000  0.000  0.032
    3  0.001  0.000  0.000  0.000  0.000  0.000  0.000  0.000  0.000  0.001
    4  0.007  0.000  0.001  0.000  0.000  0.000  0.000  0.000  0.000  0.008
    5  0.097  0.003  0.005  0.002  0.000  0.000  0.000  0.000  0.000  0.107
    6  0.127  0.009  0.000  0.005  0.000  0.000  0.000  0.000  0.000  0.141
    7  0.013  0.000  0.000  0.001  0.000  0.000  0.000  0.000  0.000  0.014
    8  0.007  0.000  0.000  0.000  0.000  0.000  0.000  0.000  0.000  0.007
    9  0.002  0.000  0.000  0.000  0.000  0.000  0.000  0.000  0.000  0.002
   10  0.006  0.000  0.000  0.000  0.000  0.000  0.000  0.000  0.000  0.006
   11  0.001  0.000  0.000  0.000  0.000  0.000  0.000  0.000  0.000  0.001
   12  0.000  0.000  0.000  0.000  0.000  0.000  0.000  0.000  0.000  0.000
   13  0.001  0.016  0.010  0.057  0.000  0.000  0.000  0.000  0.000  0.084
   14  0.001  0.011  0.000  0.011  0.000  0.000  0.000  0.000  0.000  0.022
   15  0.000  0.033  0.039  0.304  0.000  0.000  0.000  0.000  0.000  0.375
   16  0.000  0.018  0.003  0.012  0.000  0.000  0.000  0.000  0.000  0.033
   17  0.000  0.009  0.001  0.004  0.000  0.000  0.000  0.000  0.000  0.014
   18  0.000  0.001  0.000  0.003  0.000  0.000  0.000  0.000  0.000  0.004
tot    0.318  0.104  0.060  0.399  0.000  0.000  0.000  0.000  0.000  0.881
 
band    11 # energy  -12.56461615 # occ.  2.00000000
 
ion      s     py     pz     px    dxy    dyz    dz2    dxz  x2-y2    tot
    1  0.000  0.000  0.000  0.000  0.000  0.000  0.000  0.000  0.000  0.000
    2  0.000  0.000  0.000  0.000  0.000  0.000  0.000  0.000  0.000  0.000
    3  0.141  0.008  0.002  0.005  0.000  0.000  0.000  0.000  0.000  0.156
    4  0.132  0.001  0.006  0.006  0.000  0.000  0.000  0.000  0.000  0.145
    5  0.008  0.000  0.000  0.000  0.000  0.000  0.000  0.000  0.000  0.008
    6  0.007  0.001  0.000  0.000  0.000  0.000  0.000  0.000  0.000  0.008
    7  0.010  0.000  0.000  0.000  0.000  0.000  0.000  0.000  0.000  0.011
    8  0.001  0.000  0.000  0.000  0.000  0.000  0.000  0.000  0.000  0.001
    9  0.000  0.000  0.000  0.000  0.000  0.000  0.000  0.000  0.000  0.000
   10  0.001  0.000  0.000  0.000  0.000  0.000  0.000  0.000  0.000  0.001
   11  0.010  0.000  0.000  0.000  0.000  0.000  0.000  0.000  0.000  0.011
   12  0.004  0.000  0.000  0.000  0.000  0.000  0.000  0.000  0.000  0.004
   13  0.000  0.000  0.000  0.001  0.000  0.000  0.000  0.000  0.000  0.002
   14  0.000  0.405  0.055  0.000  0.000  0.000  0.000  0.000  0.000  0.460
   15  0.000  0.001  0.004  0.019  0.000  0.000  0.000  0.000  0.000  0.024
   16  0.000  0.005  0.001  0.020  0.000  0.000  0.000  0.000  0.000  0.026
   17  0.000  0.002  0.000  0.000  0.000  0.000  0.000  0.000  0.000  0.002
   18  0.000  0.007  0.018  0.001  0.000  0.000  0.000  0.000  0.000  0.026
tot    0.312  0.430  0.087  0.054  0.000  0.000  0.000  0.000  0.000  0.884
 
band    12 # energy  -12.44476575 # occ.  2.00000000
 
ion      s     py     pz     px    dxy    dyz    dz2    dxz  x2-y2    tot
    1  0.122  0.011  0.000  0.001  0.000  0.000  0.000  0.000  0.000  0.134
    2  0.106  0.003  0.003  0.006  0.000  0.000  0.000  0.000  0.000  0.117
    3  0.001  0.000  0.000  0.000  0.000  0.000  0.000  0.000  0.000  0.001
    4  0.006  0.000  0.000  0.000  0.000  0.000  0.000  0.000  0.000  0.006
    5  0.047  0.001  0.001  0.002  0.000  0.000  0.000  0.000  0.000  0.051
    6  0.020  0.002  0.000  0.000  0.000  0.000  0.000  0.000  0.000  0.023
    7  0.004  0.000  0.000  0.000  0.000  0.000  0.000  0.000  0.000  0.004
    8  0.000  0.000  0.000  0.000  0.000  0.000  0.000  0.000  0.000  0.000
    9  0.000  0.000  0.000  0.000  0.000  0.000  0.000  0.000  0.000  0.000
   10  0.000  0.000  0.000  0.000  0.000  0.000  0.000  0.000  0.000  0.000
   11  0.002  0.000  0.000  0.000  0.000  0.000  0.000  0.000  0.000  0.002
   12  0.001  0.000  0.000  0.000  0.000  0.000  0.000  0.000  0.000  0.002
   13  0.000  0.093  0.027  0.268  0.000  0.000  0.000  0.000  0.000  0.388
   14  0.000  0.009  0.001  0.007  0.000  0.000  0.000  0.000  0.000  0.017
   15  0.000  0.000  0.055  0.060  0.000  0.000  0.000  0.000  0.000  0.115
   16  0.000  0.000  0.004  0.009  0.000  0.000  0.000  0.000  0.000  0.013
   17  0.000  0.001  0.000  0.000  0.000  0.000  0.000  0.000  0.000  0.001
   18  0.000  0.003  0.002  0.002  0.000  0.000  0.000  0.000  0.000  0.006
tot    0.309  0.123  0.094  0.354  0.000  0.000  0.000  0.000  0.000  0.881
 
band    13 # energy  -10.58707505 # occ.  2.00000000
 
ion      s     py     pz     px    dxy    dyz    dz2    dxz  x2-y2    tot
    1  0.005  0.000  0.000  0.000  0.000  0.000  0.000  0.000  0.000  0.005
    2  0.012  0.000  0.000  0.000  0.000  0.000  0.000  0.000  0.000  0.012
    3  0.009  0.000  0.000  0.000  0.000  0.000  0.000  0.000  0.000  0.009
    4  0.004  0.000  0.000  0.000  0.000  0.000  0.000  0.000  0.000  0.005
    5  0.002  0.000  0.000  0.000  0.000  0.000  0.000  0.000  0.000  0.002
    6  0.002  0.000  0.000  0.000  0.000  0.000  0.000  0.000  0.000  0.002
    7  0.013  0.001  0.000  0.000  0.000  0.000  0.000  0.000  0.000  0.014
    8  0.018  0.001  0.000  0.000  0.000  0.000  0.000  0.000  0.000  0.020
    9  0.021  0.001  0.000  0.001  0.000  0.000  0.000  0.000  0.000  0.023
   10  0.007  0.000  0.001  0.000  0.000  0.000  0.000  0.000  0.000  0.008
   11  0.017  0.001  0.000  0.000  0.000  0.000  0.000  0.000  0.000  0.018
   12  0.014  0.001  0.001  0.000  0.000  0.000  0.000  0.000  0.000  0.016
   13  0.009  0.038  0.003  0.020  0.000  0.000  0.000  0.000  0.000  0.069
   14  0.012  0.006  0.011  0.024  0.000  0.000  0.000  0.000  0.000  0.053
   15  0.001  0.006  0.009  0.002  0.000  0.000  0.000  0.000  0.000  0.018
   16  0.018  0.028  0.007  0.100  0.000  0.000  0.000  0.000  0.000  0.152
   17  0.017  0.022  0.086  0.005  0.000  0.000  0.000  0.000  0.000  0.130
   18  0.014  0.054  0.050  0.036  0.000  0.000  0.000  0.000  0.000  0.154
tot    0.193  0.160  0.168  0.190  0.000  0.000  0.000  0.000  0.000  0.711
 
band    14 # energy   -9.77304348 # occ.  2.00000000
 
ion      s     py     pz     px    dxy    dyz    dz2    dxz  x2-y2    tot
    1  0.000  0.000  0.000  0.000  0.000  0.000  0.000  0.000  0.000  0.001
    2  0.001  0.000  0.000  0.000  0.000  0.000  0.000  0.000  0.000  0.001
    3  0.009  0.001  0.000  0.000  0.000  0.000  0.000  0.000  0.000  0.011
    4  0.000  0.000  0.001  0.000  0.000  0.000  0.000  0.000  0.000  0.001
    5  0.003  0.000  0.000  0.000  0.000  0.000  0.000  0.000  0.000  0.004
    6  0.002  0.000  0.000  0.000  0.000  0.000  0.000  0.000  0.000  0.002
    7  0.024  0.003  0.000  0.000  0.000  0.000  0.000  0.000  0.000  0.027
    8  0.014  0.001  0.000  0.002  0.000  0.000  0.000  0.000  0.000  0.017
    9  0.010  0.000  0.000  0.001  0.000  0.000  0.000  0.000  0.000  0.011
   10  0.001  0.000  0.001  0.001  0.000  0.000  0.000  0.000  0.000  0.003
   11  0.018  0.001  0.000  0.000  0.000  0.000  0.000  0.000  0.000  0.019
   12  0.022  0.001  0.001  0.001  0.000  0.000  0.000  0.000  0.000  0.025
   13  0.004  0.001  0.016  0.000  0.000  0.000  0.000  0.000  0.000  0.021
   14  0.003  0.026  0.002  0.012  0.000  0.000  0.000  0.000  0.000  0.043
   15  0.002  0.012  0.011  0.000  0.000  0.000  0.000  0.000  0.000  0.025
   16  0.021  0.017  0.001  0.203  0.000  0.000  0.000  0.000  0.000  0.242
   17  0.013  0.003  0.046  0.000  0.000  0.000  0.000  0.000  0.000  0.062
   18  0.025  0.078  0.052  0.082  0.000  0.000  0.000  0.000  0.000  0.237
tot    0.172  0.146  0.132  0.304  0.000  0.000  0.000  0.000  0.000  0.753
 
band    15 # energy   -9.60103853 # occ.  2.00000000
 
ion      s     py     pz     px    dxy    dyz    dz2    dxz  x2-y2    tot
    1  0.020  0.001  0.000  0.002  0.000  0.000  0.000  0.000  0.000  0.023
    2  0.004  0.001  0.000  0.000  0.000  0.000  0.000  0.000  0.000  0.005
    3  0.002  0.000  0.000  0.000  0.000  0.000  0.000  0.000  0.000  0.003
    4  0.009  0.001  0.001  0.000  0.000  0.000  0.000  0.000  0.000  0.011
    5  0.009  0.000  0.000  0.000  0.000  0.000  0.000  0.000  0.000  0.010
    6  0.010  0.000  0.001  0.001  0.000  0.000  0.000  0.000  0.000  0.011
    7  0.001  0.000  0.000  0.002  0.000  0.000  0.000  0.000  0.000  0.003
    8  0.012  0.001  0.000  0.000  0.000  0.000  0.000  0.000  0.000  0.012
    9  0.015  0.002  0.000  0.001  0.000  0.000  0.000  0.000  0.000  0.018
   10  0.022  0.000  0.001  0.002  0.000  0.000  0.000  0.000  0.000  0.025
   11  0.002  0.000  0.001  0.000  0.000  0.000  0.000  0.000  0.000  0.003
   12  0.004  0.000  0.000  0.000  0.000  0.000  0.000  0.000  0.000  0.005
   13  0.013  0.109  0.002  0.000  0.000  0.000  0.000  0.000  0.000  0.124
   14  0.005  0.002  0.015  0.043  0.000  0.000  0.000  0.000  0.000  0.064
   15  0.011  0.046  0.039  0.005  0.000  0.000  0.000  0.000  0.000  0.100
   16  0.013  0.023  0.007  0.012  0.000  0.000  0.000  0.000  0.000  0.056
   17  0.021  0.100  0.119  0.000  0.000  0.000  0.000  0.000  0.000  0.241
   18  0.007  0.018  0.018  0.001  0.000  0.000  0.000  0.000  0.000  0.043
tot    0.179  0.305  0.203  0.070  0.000  0.000  0.000  0.000  0.000  0.757
 
band    16 # energy   -9.17315935 # occ.  2.00000000
 
ion      s     py     pz     px    dxy    dyz    dz2    dxz  x2-y2    tot
    1  0.008  0.000  0.000  0.001  0.000  0.000  0.000  0.000  0.000  0.010
    2  0.025  0.001  0.001  0.002  0.000  0.000  0.000  0.000  0.000  0.028
    3  0.019  0.003  0.000  0.000  0.000  0.000  0.000  0.000  0.000  0.023
    4  0.023  0.003  0.001  0.000  0.000  0.000  0.000  0.000  0.000  0.027
    5  0.002  0.001  0.000  0.000  0.000  0.000  0.000  0.000  0.000  0.003
    6  0.012  0.000  0.000  0.001  0.000  0.000  0.000  0.000  0.000  0.013
    7  0.001  0.001  0.000  0.000  0.000  0.000  0.000  0.000  0.000  0.002
    8  0.002  0.000  0.001  0.000  0.000  0.000  0.000  0.000  0.000  0.003
    9  0.001  0.000  0.000  0.000  0.000  0.000  0.000  0.000  0.000  0.002
   10  0.002  0.000  0.000  0.000  0.000  0.000  0.000  0.000  0.000  0.003
   11  0.000  0.000  0.001  0.001  0.000  0.000  0.000  0.000  0.000  0.002
   12  0.003  0.000  0.000  0.000  0.000  0.000  0.000  0.000  0.000  0.003
   13  0.020  0.099  0.022  0.055  0.000  0.000  0.000  0.000  0.000  0.195
   14  0.025  0.006  0.054  0.180  0.000  0.000  0.000  0.000  0.000  0.264
   15  0.015  0.056  0.000  0.003  0.000  0.000  0.000  0.000  0.000  0.074
   16  0.003  0.012  0.018  0.024  0.000  0.000  0.000  0.000  0.000  0.057
   17  0.003  0.005  0.018  0.004  0.000  0.000  0.000  0.000  0.000  0.029
   18  0.003  0.009  0.003  0.000  0.000  0.000  0.000  0.000  0.000  0.015
tot    0.168  0.195  0.120  0.272  0.000  0.000  0.000  0.000  0.000  0.755
 
band    17 # energy   -9.07487418 # occ.  2.00000000
 
ion      s     py     pz     px    dxy    dyz    dz2    dxz  x2-y2    tot
    1  0.010  0.001  0.000  0.000  0.000  0.000  0.000  0.000  0.000  0.010
    2  0.001  0.000  0.001  0.001  0.000  0.000  0.000  0.000  0.000  0.002
    3  0.007  0.000  0.001  0.000  0.000  0.000  0.000  0.000  0.000  0.008
    4  0.006  0.000  0.000  0.000  0.000  0.000  0.000  0.000  0.000  0.007
    5  0.025  0.000  0.000  0.003  0.000  0.000  0.000  0.000  0.000  0.029
    6  0.018  0.000  0.002  0.002  0.000  0.000  0.000  0.000  0.000  0.021
    7  0.004  0.001  0.000  0.001  0.000  0.000  0.000  0.000  0.000  0.006
    8  0.001  0.000  0.000  0.000  0.000  0.000  0.000  0.000  0.000  0.001
    9  0.007  0.001  0.000  0.001  0.000  0.000  0.000  0.000  0.000  0.009
   10  0.010  0.000  0.000  0.001  0.000  0.000  0.000  0.000  0.000  0.011
   11  0.005  0.000  0.000  0.001  0.000  0.000  0.000  0.000  0.000  0.007
   12  0.002  0.000  0.001  0.000  0.000  0.000  0.000  0.000  0.000  0.003
   13  0.008  0.030  0.004  0.006  0.000  0.000  0.000  0.000  0.000  0.048
   14  0.016  0.008  0.048  0.009  0.000  0.000  0.000  0.000  0.000  0.081
   15  0.026  0.148  0.103  0.000  0.000  0.000  0.000  0.000  0.000  0.277
   16  0.002  0.001  0.011  0.042  0.000  0.000  0.000  0.000  0.000  0.056
   17  0.012  0.036  0.068  0.003  0.000  0.000  0.000  0.000  0.000  0.118
   18  0.004  0.010  0.056  0.000  0.000  0.000  0.000  0.000  0.000  0.070
tot    0.162  0.236  0.296  0.069  0.000  0.000  0.000  0.000  0.000  0.764
 
band    18 # energy   -8.46992026 # occ.  2.00000000
 
ion      s     py     pz     px    dxy    dyz    dz2    dxz  x2-y2    tot
    1  0.010  0.000  0.000  0.002  0.000  0.000  0.000  0.000  0.000  0.013
    2  0.010  0.001  0.000  0.002  0.000  0.000  0.000  0.000  0.000  0.013
    3  0.007  0.001  0.001  0.000  0.000  0.000  0.000  0.000  0.000  0.009
    4  0.007  0.002  0.000  0.000  0.000  0.000  0.000  0.000  0.000  0.009
    5  0.007  0.000  0.001  0.001  0.000  0.000  0.000  0.000  0.000  0.008
    6  0.008  0.000  0.000  0.001  0.000  0.000  0.000  0.000  0.000  0.010
    7  0.005  0.001  0.000  0.000  0.000  0.000  0.000  0.000  0.000  0.006
    8  0.005  0.000  0.000  0.001  0.000  0.000  0.000  0.000  0.000  0.006
    9  0.002  0.000  0.000  0.001  0.000  0.000  0.000  0.000  0.000  0.003
   10  0.005  0.001  0.000  0.001  0.000  0.000  0.000  0.000  0.000  0.008
   11  0.006  0.001  0.001  0.000  0.000  0.000  0.000  0.000  0.000  0.008
   12  0.005  0.000  0.000  0.001  0.000  0.000  0.000  0.000  0.000  0.007
   13  0.015  0.104  0.044  0.010  0.000  0.000  0.000  0.000  0.000  0.173
   14  0.011  0.008  0.070  0.030  0.000  0.000  0.000  0.000  0.000  0.119
   15  0.013  0.102  0.008  0.003  0.000  0.000  0.000  0.000  0.000  0.126
   16  0.009  0.008  0.000  0.065  0.000  0.000  0.000  0.000  0.000  0.082
   17  0.005  0.018  0.042  0.016  0.000  0.000  0.000  0.000  0.000  0.080
   18  0.009  0.020  0.027  0.050  0.000  0.000  0.000  0.000  0.000  0.105
tot    0.140  0.268  0.193  0.184  0.000  0.000  0.000  0.000  0.000  0.785
 
band    19 # energy   -7.66950180 # occ.  2.00000000
 
ion      s     py     pz     px    dxy    dyz    dz2    dxz  x2-y2    tot
    1  0.001  0.001  0.000  0.001  0.000  0.000  0.000  0.000  0.000  0.003
    2  0.000  0.000  0.000  0.000  0.000  0.000  0.000  0.000  0.000  0.000
    3  0.000  0.000  0.000  0.000  0.000  0.000  0.000  0.000  0.000  0.001
    4  0.003  0.002  0.001  0.001  0.000  0.000  0.000  0.000  0.000  0.007
    5  0.000  0.000  0.000  0.000  0.000  0.000  0.000  0.000  0.000  0.000
    6  0.000  0.000  0.000  0.000  0.000  0.000  0.000  0.000  0.000  0.000
    7  0.000  0.000  0.008  0.001  0.000  0.000  0.000  0.000  0.000  0.009
    8  0.000  0.001  0.007  0.000  0.000  0.000  0.000  0.000  0.000  0.008
    9  0.000  0.001  0.000  0.001  0.000  0.000  0.000  0.000  0.000  0.002
   10  0.000  0.001  0.000  0.001  0.000  0.000  0.000  0.000  0.000  0.001
   11  0.000  0.000  0.000  0.000  0.000  0.000  0.000  0.000  0.000  0.001
   12  0.000  0.000  0.000  0.000  0.000  0.000  0.000  0.000  0.000  0.000
   13  0.000  0.020  0.001  0.000  0.000  0.000  0.000  0.000  0.000  0.021
   14  0.001  0.002  0.032  0.011  0.000  0.000  0.000  0.000  0.000  0.045
   15  0.000  0.001  0.000  0.000  0.000  0.000  0.000  0.000  0.000  0.001
   16  0.000  0.066  0.422  0.011  0.000  0.000  0.000  0.000  0.000  0.500
   17  0.000  0.048  0.007  0.048  0.000  0.000  0.000  0.000  0.000  0.103