<?xml version="1.0" encoding="ISO-8859-1"?>
<modeling>
 <generator>
  <i name="program" type="string">vasp </i>
  <i name="version" type="string">5.4.4.18Apr17-6-g9f103f2a35  </i>
  <i name="subversion" type="string">(build Jan 13 2019 13:55:41) complex            parallel </i>
  <i name="platform" type="string">LinuxIFC </i>
  <i name="date" type="string">2019 09 04 </i>
  <i name="time" type="string">17:21:59 </i>
 </generator>
 <incar>
  <i type="string" name="SYSTEM"> VaspCalc</i>
  <i type="int" name="ISTART">     1</i>
  <i type="string" name="PREC">med</i>
  <i type="string" name="ALGO"> Fast</i>
  <i type="int" name="ISPIN">     1</i>
  <i type="int" name="NELM">   400</i>
  <i type="int" name="NELMIN">     4</i>
  <i type="int" name="IBRION">     2</i>
  <i name="EDIFF">      0.00000100</i>
  <i name="EDIFFG">     -0.01000000</i>
  <i type="int" name="NSW">   100</i>
  <i type="int" name="ISIF">     2</i>
  <i type="int" name="ISMEAR">     0</i>
  <i name="SIGMA">      0.10000000</i>
  <i type="int" name="NWRITE">     1</i>
  <i type="logical" name="LWAVE"> F  </i>
  <i type="logical" name="LCHARG"> F  </i>
  <i type="int" name="LORBIT">    11</i>
  <v type="int" name="KPOINT_BSE">    -1     0     0     0</v>
  <i type="int" name="NELM">   400</i>
  <i type="logical" name="LDIPOL"> T  </i>
  <i type="int" name="IDIPOL">     4</i>
  <v name="DIPOL">      0.50000000      0.50000000      0.50000000</v>
 </incar>
 <structure name="primitive_cell" >
  <crystal>
   <varray name="basis" >
    <v>      20.00000000       0.00000000       0.00000000 </v>
    <v>       0.00000000      20.00000000       0.00000000 </v>
    <v>       0.00000000       0.00000000      20.00000000 </v>
   </varray>
   <i name="volume">   8000.00000000 </i>
   <varray name="rec_basis" >
    <v>       0.05000000       0.00000000       0.00000000 </v>
    <v>       0.00000000       0.05000000       0.00000000 </v>
    <v>       0.00000000       0.00000000       0.05000000 </v>
   </varray>
  </crystal>
  <varray name="positions" >
   <v>      -0.48430384       0.48352365       0.42433942 </v>
   <v>      -0.46099009      -0.47315421       0.42183980 </v>
   <v>      -0.41775837      -0.48147476       0.44529586 </v>
   <v>       0.45959479       0.41649546       0.47131345 </v>
   <v>       0.49613074      -0.43217645       0.47666844 </v>
   <v>       0.41679604       0.44167314       0.47914081 </v>
   <v>      -0.49180642       0.44197130      -0.44853698 </v>
   <v>       0.44737445       0.37230111       0.45528206 </v>
   <v>       0.46695473      -0.41641973      -0.48427334 </v>
   <v>      -0.39248038       0.48735010      -0.45713164 </v>
   <v>      -0.35867672      -0.49650984      -0.49031844 </v>
   <v>      -0.48998644      -0.48542772      -0.42279670 </v>
   <v>       0.39246169      -0.46050300      -0.49427126 </v>
   <v>      -0.46830085       0.47092020      -0.41623933 </v>
   <v>       0.35978428      -0.49735352       0.49705112 </v>
   <v>       0.46872907      -0.36788388      -0.48372611 </v>
   <v>      -0.32281800       0.47076168      -0.49101790 </v>
   <v>       0.33513582       0.49665029      -0.46148940 </v>
  </varray>
 </structure>
 <varray name="primitive_index" >
  <v type="int" >        1 </v>
  <v type="int" >       13 </v>
  <v type="int" >        2 </v>
  <v type="int" >       16 </v>
  <v type="int" >       11 </v>
  <v type="int" >        7 </v>
  <v type="int" >        4 </v>
  <v type="int" >        8 </v>
  <v type="int" >       18 </v>
  <v type="int" >        5 </v>
  <v type="int" >       15 </v>
  <v type="int" >        3 </v>
  <v type="int" >       10 </v>
  <v type="int" >       14 </v>
  <v type="int" >       17 </v>
  <v type="int" >       12 </v>
  <v type="int" >        6 </v>
  <v type="int" >        9 </v>
 </varray>
 <kpoints>
  <generation param="Gamma">
   <v type="int" name="divisions">       1        1        1 </v>
   <v name="usershift">      0.00000000       0.00000000       0.00000000 </v>
   <v name="genvec1">      1.00000000       0.00000000       0.00000000 </v>
   <v name="genvec2">      0.00000000       1.00000000       0.00000000 </v>
   <v name="genvec3">      0.00000000       0.00000000       1.00000000 </v>
   <v name="shift">      0.00000000       0.00000000       0.00000000 </v>
  </generation>
  <varray name="kpointlist" >
   <v>       0.00000000       0.00000000       0.00000000 </v>
  </varray>
  <varray name="weights" >
   <v>       1.00000000 </v>
  </varray>
 </kpoints>
 <parameters>
  <separator name="general" >
   <i type="string" name="SYSTEM">VaspCalc</i>
   <i type="logical" name="LCOMPAT"> F  </i>
  </separator>
  <separator name="electronic" >
   <i type="string" name="PREC">med</i>
   <i name="ENMAX">    400.00000000</i>
   <i name="ENAUG">    605.39200000</i>
   <i name="EDIFF">      0.00000100</i>
   <i type="int" name="IALGO">    68</i>
   <i type="int" name="IWAVPR">    11</i>
   <i type="int" name="NBANDS">    36</i>
   <i name="NELECT">     48.00000000</i>
   <i type="int" name="TURBO">     0</i>
   <i type="int" name="IRESTART">     0</i>
   <i type="int" name="NREBOOT">     0</i>
   <i type="int" name="NMIN">     0</i>
   <i name="EREF">      0.00000000</i>
   <separator name="electronic smearing" >
    <i type="int" name="ISMEAR">     0</i>
    <i name="SIGMA">      0.10000000</i>
    <i name="KSPACING">      0.50000000</i>
    <i type="logical" name="KGAMMA"> T  </i>
   </separator>
   <separator name="electronic projectors" >
    <i type="logical" name="LREAL"> F  </i>
    <v name="ROPT">      0.00000000      0.00000000</v>
    <i type="int" name="LMAXPAW">  -100</i>
    <i type="int" name="LMAXMIX">     2</i>
    <i type="logical" name="NLSPLINE"> F  </i>
   </separator>
   <separator name="electronic startup" >
    <i type="int" name="ISTART">     0</i>
    <i type="int" name="ICHARG">     2</i>
    <i type="int" name="INIWAV">     1</i>
   </separator>
   <separator name="electronic spin" >
    <i type="int" name="ISPIN">     1</i>
    <i type="logical" name="LNONCOLLINEAR"> F  </i>
    <v name="MAGMOM">      1.00000000      1.00000000      1.00000000      1.00000000      1.00000000      1.00000000      1.00000000      1.00000000      1.00000000      1.00000000      1.00000000      1.00000000      1.00000000      1.00000000      1.00000000      1.00000000      1.00000000      1.00000000</v>
    <i name="NUPDOWN">     -1.00000000</i>
    <i type="logical" name="LSORBIT"> F  </i>
    <v name="SAXIS">      0.00000000      0.00000000      1.00000000</v>
    <i type="logical" name="LSPIRAL"> F  </i>
    <v name="QSPIRAL">      0.00000000      0.00000000      0.00000000</v>
    <i type="logical" name="LZEROZ"> F  </i>
   </separator>
   <separator name="electronic exchange-correlation" >
    <i type="logical" name="LASPH"> F  </i>
    <i type="logical" name="LMETAGGA"> F  </i>
   </separator>
   <separator name="electronic convergence" >
    <i type="int" name="NELM">   400</i>
    <i type="int" name="NELMDL">     0</i>
    <i type="int" name="NELMIN">     4</i>
    <i name="ENINI">    400.00000000</i>
    <separator name="electronic convergence detail" >
     <i type="logical" name="LDIAG"> T  </i>
     <i type="logical" name="LSUBROT"> F  </i>
     <i name="WEIMIN">      0.00100000</i>
     <i name="EBREAK">      0.00000001</i>
     <i name="DEPER">      0.30000000</i>
     <i type="int" name="NRMM">     4</i>
     <i name="TIME">      0.40000000</i>
    </separator>
   </separator>
   <separator name="electronic mixer" >
    <i name="AMIX">      0.40000000</i>
    <i name="BMIX">      1.00000000</i>
    <i name="AMIN">      0.10000000</i>
    <i name="AMIX_MAG">      1.60000000</i>
    <i name="BMIX_MAG">      1.00000000</i>
    <separator name="electronic mixer details" >
     <i type="int" name="IMIX">     4</i>
     <i type="logical" name="MIXFIRST"> F  </i>
     <i type="int" name="MAXMIX">   -45</i>
     <i name="WC">    100.00000000</i>
     <i type="int" name="INIMIX">     1</i>
     <i type="int" name="MIXPRE">     1</i>
     <i type="int" name="MREMOVE">     5</i>
    </separator>
   </separator>
   <separator name="electronic dipolcorrection" >
    <i type="logical" name="LDIPOL"> T  </i>
    <i type="logical" name="LMONO"> F  </i>
    <i type="int" name="IDIPOL">     4</i>
    <i name="EPSILON">      1.00000000</i>
    <v name="DIPOL">      0.50000000      0.50000000      0.50000000</v>
    <i name="EFIELD">      0.00000000</i>
   </separator>
  </separator>
  <separator name="grids" >
   <i type="int" name="NGX">    98</i>
   <i type="int" name="NGY">    98</i>
   <i type="int" name="NGZ">    98</i>
   <i type="int" name="NGXF">   160</i>
   <i type="int" name="NGYF">   160</i>
   <i type="int" name="NGZF">   160</i>
   <i type="logical" name="ADDGRID"> F  </i>
  </separator>
  <separator name="ionic" >
   <i type="int" name="NSW">   100</i>
   <i type="int" name="IBRION">     2</i>
   <i type="int" name="MDALGO">     0</i>
   <i type="int" name="ISIF">     2</i>
   <i name="PSTRESS">      0.00000000</i>
   <i name="EDIFFG">     -0.01000000</i>
   <i type="int" name="NFREE">     1</i>
   <i name="POTIM">      0.50000000</i>
   <i name="SMASS">     -3.00000000</i>
   <i name="SCALEE">      1.00000000</i>
  </separator>
  <separator name="ionic md" >
   <i name="TEBEG">      0.00010000</i>
   <i name="TEEND">      0.00010000</i>
   <i type="int" name="NBLOCK">     1</i>
   <i type="int" name="KBLOCK">   100</i>
   <i type="int" name="NPACO">   256</i>
   <i name="APACO">     16.00000000</i>
  </separator>
  <separator name="symmetry" >
   <i type="int" name="ISYM">     2</i>
   <i name="SYMPREC">      0.00001000</i>
  </separator>
  <separator name="dos" >
   <i type="int" name="LORBIT">    11</i>
   <v name="RWIGS">     -1.00000000     -1.00000000</v>
   <i type="int" name="NEDOS">   301</i>
   <i name="EMIN">     10.00000000</i>
   <i name="EMAX">    -10.00000000</i>
   <i name="EFERMI">      0.00000000</i>
  </separator>
  <separator name="writing" >
   <i type="int" name="NWRITE">     1</i>
   <i type="logical" name="LWAVE"> F  </i>
   <i type="logical" name="LDOWNSAMPLE"> F  </i>
   <i type="logical" name="LCHARG"> F  </i>
   <i type="logical" name="LPARD"> F  </i>
   <i type="logical" name="LVTOT"> F  </i>
   <i type="logical" name="LVHAR"> F  </i>
   <i type="logical" name="LELF"> F  </i>
   <i type="logical" name="LOPTICS"> F  </i>
   <v name="STM">      0.00000000      0.00000000      0.00000000      0.00000000      0.00000000      0.00000000      0.00000000</v>
  </separator>
  <separator name="performance" >
   <i type="int" name="NPAR">     4</i>
   <i type="int" name="NSIM">     4</i>
   <i type="int" name="NBLK">    -1</i>
   <i type="logical" name="LPLANE"> T  </i>
   <i type="logical" name="LSCALAPACK"> T  </i>
   <i type="logical" name="LSCAAWARE"> F  </i>
   <i type="logical" name="LSCALU"> F  </i>
   <i type="logical" name="LASYNC"> F  </i>
   <i type="logical" name="LORBITALREAL"> F  </i>
  </separator>
  <separator name="miscellaneous" >
   <i type="int" name="IDIOT">     3</i>
   <i type="int" name="ISPECIAL">     0</i>
   <i type="logical" name="LMUSIC"> F  </i>
   <v name="POMASS">      1.00000000     16.00000000</v>
   <v name="DARWINR">      0.00000000      0.00000000</v>
   <v name="DARWINV">      1.00000000      1.00000000</v>
   <i type="logical" name="LCORR"> T  </i>
  </separator>
  <i type="logical" name="GGA_COMPAT"> T  </i>
  <i type="logical" name="LBERRY"> F  </i>
  <i type="int" name="ICORELEVEL">     0</i>
  <i type="logical" name="LDAU"> F  </i>
  <i type="int" name="I_CONSTRAINED_M">     0</i>
  <separator name="electronic exchange-correlation" >
   <i type="string" name="GGA">--</i>
   <i type="int" name="VOSKOWN">     0</i>
   <i type="logical" name="LHFCALC"> F  </i>
   <i type="string" name="PRECFOCK"></i>
   <i type="logical" name="LSYMGRAD"> F  </i>
   <i type="logical" name="LHFONE"> F  </i>
   <i type="logical" name="LRHFCALC"> F  </i>
   <i type="logical" name="LTHOMAS"> F  </i>
   <i type="logical" name="LMODELHF"> F  </i>
   <i name="ENCUT4O">     -1.00000000</i>
   <i type="int" name="EXXOEP">     0</i>
   <i type="int" name="FOURORBIT">     0</i>
   <i name="AEXX">      0.00000000</i>
   <i name="HFALPHA">      0.00000000</i>
   <i name="MCALPHA">      0.00000000</i>
   <i name="ALDAX">      1.00000000</i>
   <i name="AGGAX">      1.00000000</i>
   <i name="ALDAC">      1.00000000</i>
   <i name="AGGAC">      1.00000000</i>
   <i type="int" name="NKREDX">     1</i>
   <i type="int" name="NKREDY">     1</i>
   <i type="int" name="NKREDZ">     1</i>
   <i type="logical" name="SHIFTRED"> F  </i>
   <i type="logical" name="ODDONLY"> F  </i>
   <i type="logical" name="EVENONLY"> F  </i>
   <i type="int" name="LMAXFOCK">     0</i>
   <i type="int" name="NMAXFOCKAE">     0</i>
   <i type="logical" name="LFOCKAEDFT"> F  </i>
   <i name="HFSCREEN">      0.00000000</i>
   <i name="HFSCREENC">      0.00000000</i>
   <i type="int" name="NBANDSGWLOW">     0</i>
  </separator>
  <separator name="vdW DFT" >
   <i type="logical" name="LUSE_VDW"> F  </i>
   <i name="Zab_VDW">     -0.84910000</i>
   <i name="PARAM1">      0.12340000</i>
   <i name="PARAM2">      1.00000000</i>
   <i name="PARAM3">      0.00000000</i>
  </separator>
  <separator name="model GW" >
   <i type="int" name="MODEL_GW">     0</i>
   <i name="MODEL_EPS0">    266.66666667</i>
   <i name="MODEL_ALPHA">      1.00000000</i>
  </separator>
  <separator name="linear response parameters" >
   <i type="logical" name="LEPSILON"> F  </i>
   <i type="logical" name="LRPA"> F  </i>
   <i type="logical" name="LNABLA"> F  </i>
   <i type="logical" name="LVEL"> F  </i>
   <i type="int" name="KINTER">     0</i>
   <i name="CSHIFT">      0.10000000</i>
   <i name="OMEGAMAX">     -1.00000000</i>
   <i name="DEG_THRESHOLD">      0.00200000</i>
   <i name="RTIME">     -0.10000000</i>
   <i name="WPLASMAI">      0.00000000</i>
   <v name="DFIELD">      0.00000000      0.00000000      0.00000000</v>
   <v name="WPLASMA">      0.00000000      0.00000000      0.00000000      0.00000000      0.00000000      0.00000000      0.00000000      0.00000000      0.00000000</v>
  </separator>
  <separator name="orbital magnetization" >
   <i type="logical" name="NUCIND"> F  </i>
   <v name="MAGPOS">      0.00000000      0.00000000      0.00000000</v>
   <i type="logical" name="LNICSALL"> T  </i>
   <i type="logical" name="ORBITALMAG"> F  </i>
   <i type="logical" name="LMAGBLOCH"> F  </i>
   <i type="logical" name="LCHIMAG"> F  </i>
   <i type="logical" name="LGAUGE"> T  </i>
   <i type="int" name="MAGATOM">     0</i>
   <v name="MAGDIPOL">      0.00000000      0.00000000      0.00000000</v>
   <v name="AVECCONST">      0.00000000      0.00000000      0.00000000</v>
  </separator>
  <separator name="response functions" >
   <i type="logical" name="LADDER"> F  </i>
   <i type="logical" name="LRPAFORCE"> F  </i>
   <i type="logical" name="LFXC"> F  </i>
   <i type="logical" name="LHARTREE"> T  </i>
   <i type="int" name="IBSE">     0</i>
   <v type="int" name="KPOINT">    -1     0     0     0</v>
   <i type="logical" name="LTCTE"> F  </i>
   <i type="logical" name="LTETE"> F  </i>
   <i type="logical" name="LTRIPLET"> F  </i>
   <i type="logical" name="LFXCEPS"> F  </i>
   <i type="logical" name="LFXHEG"> F  </i>
   <i type="int" name="NATURALO">     2</i>
   <i type="logical" name="L2ORDER"> F  </i>
   <i type="logical" name="LMP2LT"> F  </i>
   <i type="logical" name="LUSEW"> F  </i>
   <i name="ENCUTGW">     -2.00000000</i>
   <i name="ENCUTGWSOFT">     -2.00000000</i>
   <i name="ENCUTLF">     -1.00000000</i>
   <i type="int" name="LMAXMP2">    -1</i>
   <i name="SCISSOR">      0.00000000</i>
   <i type="int" name="NOMEGA">     0</i>
   <i type="int" name="NOMEGAR">     0</i>
   <i type="int" name="NBANDSGW">    -1</i>
   <i type="int" name="NBANDSO">    -1</i>
   <i type="int" name="NBANDSV">    -1</i>
   <i type="int" name="NELM">   400</i>
   <i type="int" name="NELMHF">     1</i>
   <i type="int" name="DIM">     3</i>
   <i type="int" name="ANTIRES">     0</i>
   <i name="OMEGAMAX">    -30.00000000</i>
   <i name="OMEGAMIN">    -30.00000000</i>
   <i name="OMEGATL">   -200.00000000</i>
   <i type="int" name="OMEGAGRID">   140</i>
   <i name="CSHIFT">     -0.10000000</i>
   <i type="logical" name="SELFENERGY"> F  </i>
   <i type="logical" name="LSPECTRAL"> F  </i>
   <i type="logical" name="LSPECTRALGW"> F  </i>
   <i type="logical" name="LSINGLES"> F  </i>
   <i type="logical" name="LFERMIGW"> F  </i>
   <i type="logical" name="ODDONLYGW"> F  </i>
   <i type="logical" name="EVENONLYGW"> F  </i>
   <i type="int" name="NKREDLFX">     1</i>
   <i type="int" name="NKREDLFY">     1</i>
   <i type="int" name="NKREDLFZ">     1</i>
   <i type="int" name="MAXMEM">  2800</i>
   <i type="int" name="TELESCOPE">     0</i>
   <i type="int" name="TAUPAR">     1</i>
   <i type="int" name="OMEGAPAR">    -1</i>
   <i name="LAMBDA">      1.00000000</i>
  </separator>
  <separator name="External order field" >
   <i name="OFIELD_KAPPA">      0.00000000</i>
   <v name="OFIELD_K">      0.00000000      0.00000000      0.00000000</v>
   <i name="OFIELD_Q6_NEAR">      0.00000000</i>
   <i name="OFIELD_Q6_FAR">      0.00000000</i>
   <i name="OFIELD_A">      0.00000000</i>
  </separator>
 </parameters>
 <atominfo>
  <atoms>      18 </atoms>
  <types>       2 </types>
  <array name="atoms" >
   <dimension dim="1">ion</dimension>
   <field type="string">element</field>
   <field type="int">atomtype</field>
   <set>
    <rc><c>H </c><c>   1</c></rc>
    <rc><c>H </c><c>   1</c></rc>
    <rc><c>H </c><c>   1</c></rc>
    <rc><c>H </c><c>   1</c></rc>
    <rc><c>H </c><c>   1</c></rc>
    <rc><c>H </c><c>   1</c></rc>
    <rc><c>H </c><c>   1</c></rc>
    <rc><c>H </c><c>   1</c></rc>
    <rc><c>H </c><c>   1</c></rc>
    <rc><c>H </c><c>   1</c></rc>
    <rc><c>H </c><c>   1</c></rc>
    <rc><c>H </c><c>   1</c></rc>
    <rc><c>O </c><c>   2</c></rc>
    <rc><c>O </c><c>   2</c></rc>
    <rc><c>O </c><c>   2</c></rc>
    <rc><c>O </c><c>   2</c></rc>
    <rc><c>O </c><c>   2</c></rc>
    <rc><c>O </c><c>   2</c></rc>
   </set>
  </array>
  <array name="atomtypes" >
   <dimension dim="1">type</dimension>
   <field type="int">atomspertype</field>
   <field type="string">element</field>
   <field>mass</field>
   <field>valence</field>
   <field type="string">pseudopotential</field>
   <set>
    <rc><c>  12</c><c>H </c><c>      1.00000000</c><c>      1.00000000</c><c>  PAW_PBE H 15Jun2001                   </c></rc>
    <rc><c>   6</c><c>O </c><c>     16.00000000</c><c>      6.00000000</c><c>  PAW_PBE O 08Apr2002                   </c></rc>
   </set>
  </array>
 </atominfo>
 <structure name="initialpos" >
  <crystal>
   <varray name="basis" >
    <v>      20.00000000       0.00000000       0.00000000 </v>
    <v>       0.00000000      20.00000000       0.00000000 </v>
    <v>       0.00000000       0.00000000      20.00000000 </v>
   </varray>
   <i name="volume">   8000.00000000 </i>
   <varray name="rec_basis" >
    <v>       0.05000000       0.00000000       0.00000000 </v>
    <v>       0.00000000       0.05000000       0.00000000 </v>
    <v>       0.00000000       0.00000000       0.05000000 </v>
   </varray>
  </crystal>
  <varray name="positions" >
   <v>       0.51569616       0.48352365       0.42433942 </v>
   <v>       0.58224163       0.51852524       0.44529586 </v>
   <v>       0.51001356       0.51457228       0.57720330 </v>
   <v>       0.50819358       0.44197130       0.55146302 </v>
   <v>       0.60751962       0.48735010       0.54286836 </v>
   <v>       0.67718200       0.47076168       0.50898210 </v>
   <v>       0.41679604       0.44167314       0.47914081 </v>
   <v>       0.44737445       0.37230111       0.45528206 </v>
   <v>       0.33513582       0.49665029       0.53851060 </v>
   <v>       0.39246169       0.53949700       0.50572874 </v>
   <v>       0.49613074       0.56782355       0.47666844 </v>
   <v>       0.46872907       0.63211612       0.51627389 </v>
   <v>       0.53900991       0.52684579       0.42183980 </v>
   <v>       0.53169915       0.47092020       0.58376067 </v>
   <v>       0.64132328       0.50349016       0.50968156 </v>
   <v>       0.45959479       0.41649546       0.47131345 </v>
   <v>       0.35978428       0.50264648       0.49705112 </v>
   <v>       0.46695473       0.58358027       0.51572666 </v>
  </varray>
 </structure>
 <calculation>
  <scstep>
   <time name="dav">    0.42    0.42</time>
   <time name="total">    0.52    0.52</time>
   <dipole>
    <v name="dipole">      0.00000268       0.00000059      -0.00000092 </v>
    <i name="Tr[quadrupol]">     26.40805683 </i>
    <i name="Echarged">      0.00000000 </i>
    <i name="Edipol_quadrupol">      0.00000000 </i>
    <i name="Eion">      0.00000000 </i>
   </dipole>
   <energy>
    <i name="alphaZ">      1.00913082 </i>
    <i name="ewald">   3136.43382897 </i>
    <i name="hartreedc">  -5293.38270993 </i>
    <i name="XCdc">    195.18231278 </i>
    <i name="pawpsdc">   2104.90519057 </i>
    <i name="pawaedc">  -2115.80374798 </i>
    <i name="eentropy">     -0.11793238 </i>
    <i name="bandstr">   -252.62062352 </i>
    <i name="atom">   2743.32276819 </i>
    <i name="e_fr_energy">    518.92821753 </i>
    <i name="e_wo_entrp">    519.04614991 </i>
    <i name="e_0_energy">    518.98718372 </i>
   </energy>
  </scstep>
  <scstep>
   <time name="dav">    0.59    0.59</time>
   <time name="total">    0.59    0.59</time>
   <dipole>
    <v name="dipole">      0.00000268       0.00000059      -0.00000092 </v>
    <i name="Tr[quadrupol]">     26.40805683 </i>
    <i name="Echarged">      0.00000000 </i>
    <i name="Edipol_quadrupol">      0.00000000 </i>
    <i name="Eion">      0.00000000 </i>
   </dipole>
   <energy>
    <i name="e_fr_energy">    211.80050908 </i>
    <i name="e_wo_entrp">    211.91852127 </i>
    <i name="e_0_energy">    211.85951517 </i>
   </energy>
  </scstep>
  <scstep>
   <time name="dav">    0.52    0.52</time>
   <time name="total">    0.52    0.52</time>
   <dipole>
    <v name="dipole">      0.00000268       0.00000059      -0.00000092 </v>
    <i name="Tr[quadrupol]">     26.40805683 </i>
    <i name="Echarged">      0.00000000 </i>
    <i name="Edipol_quadrupol">      0.00000000 </i>
    <i name="Eion">      0.00000000 </i>
   </dipole>
   <energy>
    <i name="e_fr_energy">    -43.59183520 </i>
    <i name="e_wo_entrp">    -43.59183520 </i>
    <i name="e_0_energy">    -43.59183520 </i>
   </energy>
  </scstep>
  <scstep>
   <time name="dav">    0.36    0.36</time>
   <time name="total">    0.36    0.36</time>
   <dipole>
    <v name="dipole">      0.00000268       0.00000059      -0.00000092 </v>
    <i name="Tr[quadrupol]">     26.40805683 </i>
    <i name="Echarged">      0.00000000 </i>
    <i name="Edipol_quadrupol">      0.00000000 </i>
    <i name="Eion">      0.00000000 </i>
   </dipole>
   <energy>
    <i name="e_fr_energy">    -95.99207434 </i>
    <i name="e_wo_entrp">    -95.99207434 </i>
    <i name="e_0_energy">    -95.99207434 </i>
   </energy>
  </scstep>
  <scstep>
   <time name="dav">    0.45    0.45</time>
   <time name="total">    0.48    0.48</time>
   <dipole>
    <v name="dipole">      0.00000268       0.00000059      -0.00000092 </v>
    <i name="Tr[quadrupol]">     26.40805683 </i>
    <i name="Echarged">      0.00000000 </i>
    <i name="Edipol_quadrupol">      0.00000000 </i>
    <i name="Eion">      0.00000000 </i>
   </dipole>
   <energy>
    <i name="e_fr_energy">    -96.97115985 </i>
    <i name="e_wo_entrp">    -96.97115985 </i>
    <i name="e_0_energy">    -96.97115985 </i>
   </energy>
  </scstep>
  <scstep>
   <time name="diag">    0.07    0.07</time>
   <time name="diis">    0.30    0.30</time>
   <time name="orth">    0.01    0.01</time>
   <time name="total">    0.50    0.50</time>
   <dipole>
    <v name="dipole">      0.05703205       0.05272040      -0.02926002 </v>
    <i name="Tr[quadrupol]">     24.96083503 </i>
    <i name="Echarged">      0.00000000 </i>
    <i name="Edipol_quadrupol">      0.00000000 </i>
    <i name="Eion">      0.00000000 </i>
   </dipole>
   <energy>
    <i name="e_fr_energy">    -88.10631632 </i>
    <i name="e_wo_entrp">    -88.10631632 </i>
    <i name="e_0_energy">    -88.10631632 </i>
   </energy>
  </scstep>
  <scstep>
   <time name="diag">    0.07    0.07</time>
   <time name="diis">    0.30    0.30</time>
   <time name="orth">    0.01    0.01</time>
   <time name="total">    0.50    0.50</time>
   <dipole>
    <v name="dipole">      0.09899096       0.08614048      -0.04710532 </v>
    <i name="Tr[quadrupol]">     24.00131796 </i>
    <i name="Echarged">      0.00000000 </i>
    <i name="Edipol_quadrupol">      0.00000000 </i>
    <i name="Eion">      0.00000000 </i>
   </dipole>
   <energy>
    <i name="e_fr_energy">    -87.73375142 </i>
    <i name="e_wo_entrp">    -87.73375142 </i>
    <i name="e_0_energy">    -87.73375142 </i>
   </energy>
  </scstep>
  <scstep>
   <time name="diag">    0.07    0.07</time>
   <time name="diis">    0.30    0.30</time>
   <time name="orth">    0.01    0.01</time>
   <time name="total">    0.51    0.51</time>
   <dipole>
    <v name="dipole">      0.17524687       0.14354534      -0.07599704 </v>
    <i name="Tr[quadrupol]">     22.33288180 </i>
    <i name="Echarged">      0.00000000 </i>
    <i name="Edipol_quadrupol">      0.00000000 </i>
    <i name="Eion">      0.00000000 </i>
   </dipole>
   <energy>
    <i name="e_fr_energy">    -87.48881080 </i>
    <i name="e_wo_entrp">    -87.48881080 </i>
    <i name="e_0_energy">    -87.48881080 </i>
   </energy>
  </scstep>
  <scstep>
   <time name="diag">    0.07    0.07</time>
   <time name="diis">    0.30    0.30</time>
   <time name="orth">    0.01    0.01</time>
   <time name="total">    0.50    0.50</time>
   <dipole>
    <v name="dipole">      0.20209116       0.16444951      -0.08645726 </v>
    <i name="Tr[quadrupol]">     21.69835396 </i>
    <i name="Echarged">      0.00000000 </i>
    <i name="Edipol_quadrupol">      0.00000000 </i>
    <i name="Eion">      0.00000000 </i>
   </dipole>
   <energy>
    <i name="e_fr_energy">    -87.45818622 </i>
    <i name="e_wo_entrp">    -87.45818622 </i>
    <i name="e_0_energy">    -87.45818622 </i>
   </energy>
  </scstep>
  <scstep>
   <time name="diag">    0.07    0.07</time>
   <time name="diis">    0.33    0.33</time>
   <time name="orth">    0.01    0.01</time>
   <time name="total">    0.52    0.53</time>
   <dipole>
    <v name="dipole">      0.25672439       0.20639994      -0.10632657 </v>
    <i name="Tr[quadrupol]">     20.35854833 </i>
    <i name="Echarged">      0.00000000 </i>
    <i name="Edipol_quadrupol">      0.00000000 </i>
    <i name="Eion">      0.00000000 </i>
   </dipole>
   <energy>
    <i name="e_fr_energy">    -87.45638992 </i>
    <i name="e_wo_entrp">    -87.45638992 </i>
    <i name="e_0_energy">    -87.45638992 </i>
   </energy>
  </scstep>
  <scstep>
   <time name="diag">    0.07    0.07</time>
   <time name="diis">    0.30    0.30</time>
   <time name="orth">    0.01    0.01</time>
   <time name="total">    0.50    0.50</time>
   <dipole>
    <v name="dipole">      0.26708798       0.21514024      -0.11016799 </v>
    <i name="Tr[quadrupol]">     20.02693244 </i>
    <i name="Echarged">      0.00000000 </i>
    <i name="Edipol_quadrupol">      0.00000000 </i>
    <i name="Eion">      0.00000000 </i>
   </dipole>
   <energy>
    <i name="e_fr_energy">    -87.45745131 </i>
    <i name="e_wo_entrp">    -87.45745131 </i>
    <i name="e_0_energy">    -87.45745131 </i>
   </energy>
  </scstep>
  <scstep>
   <time name="diag">    0.07    0.07</time>
   <time name="diis">    0.30    0.30</time>
   <time name="orth">    0.01    0.01</time>
   <time name="total">    0.50    0.50</time>
   <dipole>
    <v name="dipole">      0.28680768       0.23382953      -0.11811266 </v>
    <i name="Tr[quadrupol]">     19.22955090 </i>
    <i name="Echarged">      0.00000000 </i>
    <i name="Edipol_quadrupol">      0.00000000 </i>
    <i name="Eion">      0.00000000 </i>
   </dipole>
   <energy>
    <i name="e_fr_energy">    -87.47218950 </i>
    <i name="e_wo_entrp">    -87.47218950 </i>
    <i name="e_0_energy">    -87.47218950 </i>
   </energy>
  </scstep>
  <scstep>
   <time name="diag">    0.07    0.07</time>
   <time name="diis">    0.32    0.32</time>
   <time name="orth">    0.01    0.01</time>
   <time name="total">    0.52    0.52</time>
   <dipole>
    <v name="dipole">      0.29492374       0.24255121      -0.12185702 </v>
    <i name="Tr[quadrupol]">     18.80215825 </i>
    <i name="Echarged">      0.00000000 </i>
    <i name="Edipol_quadrupol">      0.00000000 </i>
    <i name="Eion">      0.00000000 </i>
   </dipole>
   <energy>
    <i name="e_fr_energy">    -87.47798283 </i>
    <i name="e_wo_entrp">    -87.47798283 </i>
    <i name="e_0_energy">    -87.47798283 </i>
   </energy>
  </scstep>
  <scstep>
   <time name="diag">    0.07    0.07</time>
   <time name="diis">    0.32    0.32</time>
   <time name="orth">    0.01    0.01</time>
   <time name="total">    0.52    0.52</time>
   <dipole>
    <v name="dipole">      0.29711821       0.24716174      -0.12386207 </v>
    <i name="Tr[quadrupol]">     18.45817761 </i>
    <i name="Echarged">      0.00000000 </i>
    <i name="Edipol_quadrupol">      0.00000000 </i>
    <i name="Eion">      0.00000000 </i>
   </dipole>
   <energy>
    <i name="e_fr_energy">    -87.48517650 </i>
    <i name="e_wo_entrp">    -87.48517650 </i>
    <i name="e_0_energy">    -87.48517650 </i>
   </energy>
  </scstep>
  <scstep>
   <time name="diag">    0.07    0.07</time>
   <time name="diis">    0.32    0.32</time>
   <time name="orth">    0.01    0.01</time>
   <time name="total">    0.52    0.52</time>
   <dipole>
    <v name="dipole">      0.29728090       0.24781522      -0.12412848 </v>
    <i name="Tr[quadrupol]">     18.39673610 </i>
    <i name="Echarged">      0.00000000 </i>
    <i name="Edipol_quadrupol">      0.00000000 </i>
    <i name="Eion">      0.00000000 </i>
   </dipole>
   <energy>
    <i name="e_fr_energy">    -87.48630530 </i>
    <i name="e_wo_entrp">    -87.48630530 </i>
    <i name="e_0_energy">    -87.48630530 </i>
   </energy>
  </scstep>
  <scstep>
   <time name="diag">    0.07    0.07</time>
   <time name="diis">    0.30    0.30</time>
   <time name="orth">    0.01    0.01</time>
   <time name="total">    0.50    0.50</time>
   <dipole>
    <v name="dipole">      0.29764537       0.24913269      -0.12472777 </v>
    <i name="Tr[quadrupol]">     18.27447103 </i>
    <i name="Echarged">      0.00000000 </i>
    <i name="Edipol_quadrupol">      0.00000000 </i>
    <i name="Eion">      0.00000000 </i>
   </dipole>
   <energy>
    <i name="e_fr_energy">    -87.48824473 </i>
    <i name="e_wo_entrp">    -87.48824473 </i>
    <i name="e_0_energy">    -87.48824473 </i>
   </energy>
  </scstep>
  <scstep>
   <time name="diag">    0.07    0.07</time>
   <time name="diis">    0.32    0.32</time>
   <time name="orth">    0.01    0.01</time>
   <time name="total">    0.51    0.51</time>
   <dipole>
    <v name="dipole">      0.29880597       0.25045732      -0.12539136 </v>
    <i name="Tr[quadrupol]">     18.19448021 </i>
    <i name="Echarged">      0.00000000 </i>
    <i name="Edipol_quadrupol">      0.00000000 </i>
    <i name="Eion">      0.00000000 </i>
   </dipole>
   <energy>
    <i name="e_fr_energy">    -87.48903804 </i>
    <i name="e_wo_entrp">    -87.48903804 </i>
    <i name="e_0_energy">    -87.48903804 </i>
   </energy>
  </scstep>
  <scstep>
   <time name="diag">    0.07    0.07</time>
   <time name="diis">    0.30    0.30</time>
   <time name="orth">    0.01    0.01</time>
   <time name="total">    0.50    0.50</time>
   <dipole>
    <v name="dipole">      0.29979920       0.25132812      -0.12580674 </v>
    <i name="Tr[quadrupol]">     18.15631736 </i>
    <i name="Echarged">      0.00000000 </i>
    <i name="Edipol_quadrupol">      0.00000000 </i>
    <i name="Eion">      0.00000000 </i>
   </dipole>
   <energy>
    <i name="e_fr_energy">    -87.48938133 </i>
    <i name="e_wo_entrp">    -87.48938133 </i>
    <i name="e_0_energy">    -87.48938133 </i>
   </energy>
  </scstep>
  <scstep>
   <time name="diag">    0.07    0.07</time>
   <time name="diis">    0.27    0.28</time>
   <time name="orth">    0.01    0.01</time>
   <time name="total">    0.47    0.47</time>
   <dipole>
    <v name="dipole">      0.30142241       0.25253682      -0.12638900 </v>
    <i name="Tr[quadrupol]">     18.12740946 </i>
    <i name="Echarged">      0.00000000 </i>
    <i name="Edipol_quadrupol">      0.00000000 </i>
    <i name="Eion">      0.00000000 </i>
   </dipole>
   <energy>
    <i name="e_fr_energy">    -87.48958981 </i>
    <i name="e_wo_entrp">    -87.48958981 </i>
    <i name="e_0_energy">    -87.48958981 </i>
   </energy>
  </scstep>
  <scstep>
   <time name="diag">    0.07    0.07</time>
   <time name="diis">    0.32    0.32</time>
   <time name="orth">    0.01    0.01</time>
   <time name="total">    0.52    0.52</time>
   <dipole>
    <v name="dipole">      0.30238534       0.25325205      -0.12673287 </v>
    <i name="Tr[quadrupol]">     18.11386260 </i>
    <i name="Echarged">      0.00000000 </i>
    <i name="Edipol_quadrupol">      0.00000000 </i>
    <i name="Eion">      0.00000000 </i>
   </dipole>
   <energy>
    <i name="e_fr_energy">    -87.48965790 </i>
    <i name="e_wo_entrp">    -87.48965790 </i>
    <i name="e_0_energy">    -87.48965790 </i>
   </energy>
  </scstep>
  <scstep>
   <time name="diag">    0.07    0.07</time>
   <time name="diis">    0.21    0.21</time>
   <time name="orth">    0.01    0.01</time>
   <time name="total">    0.41    0.41</time>
   <dipole>
    <v name="dipole">      0.30315812       0.25384371      -0.12700967 </v>
    <i name="Tr[quadrupol]">     18.10668727 </i>
    <i name="Echarged">      0.00000000 </i>
    <i name="Edipol_quadrupol">      0.00000000 </i>
    <i name="Eion">      0.00000000 </i>
   </dipole>
   <energy>
    <i name="e_fr_energy">    -87.48969491 </i>
    <i name="e_wo_entrp">    -87.48969491 </i>
    <i name="e_0_energy">    -87.48969491 </i>
   </energy>
  </scstep>
  <scstep>
   <time name="diag">    0.07    0.07</time>
   <time name="diis">    0.21    0.21</time>
   <time name="orth">    0.01    0.01</time>
   <time name="total">    0.41    0.41</time>
   <dipole>
    <v name="dipole">      0.30350588       0.25412202      -0.12713732 </v>
    <i name="Tr[quadrupol]">     18.10369408 </i>
    <i name="Echarged">      0.00000000 </i>
    <i name="Edipol_quadrupol">      0.00000000 </i>
    <i name="Eion">      0.00000000 </i>
   </dipole>
   <energy>
    <i name="e_fr_energy">    -87.48970558 </i>
    <i name="e_wo_entrp">    -87.48970558 </i>
    <i name="e_0_energy">    -87.48970558 </i>
   </energy>
  </scstep>
  <scstep>
   <time name="diag">    0.07    0.07</time>
   <time name="diis">    0.21    0.21</time>
   <time name="orth">    0.01    0.01</time>
   <time name="total">    0.41    0.41</time>
   <dipole>
    <v name="dipole">      0.30378078       0.25436564      -0.12724691 </v>
    <i name="Tr[quadrupol]">     18.10211032 </i>
    <i name="Echarged">      0.00000000 </i>
    <i name="Edipol_quadrupol">      0.00000000 </i>
    <i name="Eion">      0.00000000 </i>
   </dipole>
   <energy>
    <i name="e_fr_energy">    -87.48971286 </i>
    <i name="e_wo_entrp">    -87.48971286 </i>
    <i name="e_0_energy">    -87.48971286 </i>
   </energy>
  </scstep>
  <scstep>
   <time name="diag">    0.07    0.07</time>
   <time name="diis">    0.19    0.19</time>
   <time name="orth">    0.01    0.01</time>
   <time name="total">    0.39    0.39</time>
   <dipole>
    <v name="dipole">      0.30390729       0.25448117      -0.12729916 </v>
    <i name="Tr[quadrupol]">     18.10126604 </i>
    <i name="Echarged">      0.00000000 </i>
    <i name="Edipol_quadrupol">      0.00000000 </i>
    <i name="Eion">      0.00000000 </i>
   </dipole>
   <energy>
    <i name="e_fr_energy">    -87.48971528 </i>
    <i name="e_wo_entrp">    -87.48971528 </i>
    <i name="e_0_energy">    -87.48971528 </i>
   </energy>
  </scstep>
  <scstep>
   <time name="diag">    0.07    0.07</time>
   <time name="diis">    0.21    0.21</time>
   <time name="orth">    0.01    0.01</time>
   <time name="total">    0.42    0.42</time>
   <dipole>
    <v name="dipole">      0.30402447       0.25460333      -0.12735421 </v>
    <i name="Tr[quadrupol]">     18.10032023 </i>
    <i name="Echarged">      0.00000000 </i>
    <i name="Edipol_quadrupol">      0.00000000 </i>
    <i name="Eion">      0.00000000 </i>
   </dipole>
   <energy>
    <i name="e_fr_energy">    -87.48971811 </i>
    <i name="e_wo_entrp">    -87.48971811 </i>
    <i name="e_0_energy">    -87.48971811 </i>
   </energy>
  </scstep>
  <scstep>
   <time name="diag">    0.07    0.07</time>
   <time name="diis">    0.18    0.18</time>
   <time name="orth">    0.01    0.01</time>
   <time name="total">    0.35    0.35</time>
   <dipole>
    <v name="dipole">      0.30404368       0.25462644      -0.12736419 </v>
    <i name="Tr[quadrupol]">     18.10021901 </i>
    <i name="Echarged">      0.00000000 </i>
    <i name="Edipol_quadrupol">      0.00000000 </i>
    <i name="Eion">      0.00000000 </i>
   </dipole>
   <energy>
    <i name="alphaZ">      1.01158104 </i>
    <i name="ewald">   3136.43382897 </i>
    <i name="hartreedc">  -5503.02379548 </i>
    <i name="XCdc">    205.23733214 </i>
    <i name="pawpsdc">   3363.92358349 </i>
    <i name="pawaedc">  -3376.45575118 </i>
    <i name="eentropy">     -0.00000000 </i>
    <i name="bandstr">   -657.93926587 </i>
    <i name="atom">   2743.32276819 </i>
    <i name="e_fr_energy">    -87.48971869 </i>
    <i name="e_wo_entrp">    -87.48971869 </i>
    <i name="e_0_energy">    -87.48971869 </i>
   </energy>
  </scstep>
  <structure>
   <crystal>
    <varray name="basis" >
     <v>      20.00000000       0.00000000       0.00000000 </v>
     <v>       0.00000000      20.00000000       0.00000000 </v>
     <v>       0.00000000       0.00000000      20.00000000 </v>
    </varray>
    <i name="volume">   8000.00000000 </i>
    <varray name="rec_basis" >
     <v>       0.05000000       0.00000000       0.00000000 </v>
     <v>       0.00000000       0.05000000       0.00000000 </v>
     <v>       0.00000000       0.00000000       0.05000000 </v>
    </varray>
   </crystal>
   <varray name="positions" >
    <v>       0.51569616       0.48352365       0.42433942 </v>
    <v>       0.58224163       0.51852524       0.44529586 </v>
    <v>       0.51001356       0.51457228       0.57720330 </v>
    <v>       0.50819358       0.44197130       0.55146302 </v>
    <v>       0.60751962       0.48735010       0.54286836 </v>
    <v>       0.67718200       0.47076168       0.50898210 </v>
    <v>       0.41679604       0.44167314       0.47914081 </v>
    <v>       0.44737445       0.37230111       0.45528206 </v>
    <v>       0.33513582       0.49665029       0.53851060 </v>
    <v>       0.39246169       0.53949700       0.50572874 </v>
    <v>       0.49613074       0.56782355       0.47666844 </v>
    <v>       0.46872907       0.63211612       0.51627389 </v>
    <v>       0.53900991       0.52684579       0.42183980 </v>
    <v>       0.53169915       0.47092020       0.58376067 </v>
    <v>       0.64132328       0.50349016       0.50968156 </v>
    <v>       0.45959479       0.41649546       0.47131345 </v>
    <v>       0.35978428       0.50264648       0.49705112 </v>
    <v>       0.46695473       0.58358027       0.51572666 </v>
   </varray>
  </structure>
  <varray name="forces" >
   <v>      -0.00222676       0.01545450       0.00425636 </v>
   <v>       0.00033052      -0.00473863      -0.01306249 </v>
   <v>       0.00479534       0.00330277      -0.00871501 </v>
   <v>       0.00278761       0.00569191      -0.00233968 </v>
   <v>      -0.01501577      -0.01873420       0.02045473 </v>
   <v>      -0.00935663      -0.00936987      -0.00282375 </v>
   <v>      -0.00233757       0.00726026       0.00072615 </v>
   <v>       0.00054784       0.00175392      -0.00007936 </v>
   <v>      -0.00132896       0.00733897       0.00388229 </v>
   <v>       0.02135964       0.01431137       0.01183512 </v>
   <v>       0.00535554      -0.00301474      -0.00517282 </v>
   <v>       0.00146248       0.00734771       0.00040266 </v>
   <v>       0.01335124      -0.00130915       0.00337720 </v>
   <v>      -0.00250141      -0.00128043      -0.00723465 </v>
   <v>       0.01333010       0.01107770      -0.01417071 </v>
   <v>       0.01313272      -0.00413331       0.00175717 </v>
   <v>      -0.02214773      -0.02338685      -0.00653440 </v>
   <v>      -0.02153821      -0.00757193       0.01344121 </v>
  </varray>
  <varray name="stress" >
   <v>      -0.92135080       0.00383561      -0.01089581 </v>
   <v>       0.00383561      -0.90020287       0.01495114 </v>
   <v>      -0.01089581       0.01495114      -0.95901797 </v>
  </varray>
  <energy>
   <i name="e_fr_energy">    -87.48971869 </i>
   <i name="e_wo_entrp">    -87.48971869 </i>
   <i name="e_0_energy">     -0.00000000 </i>
  </energy>
  <time name="totalsc">   13.02   13.04</time>
 </calculation>
 <calculation>
  <scstep>
   <time name="dav">    0.42    0.42</time>
   <time name="total">    0.54    0.54</time>
   <dipole>
    <v name="dipole">      0.30405146       0.25463761      -0.12736895 </v>
    <i name="Tr[quadrupol]">     18.10014518 </i>
    <i name="Echarged">      0.00000000 </i>
    <i name="Edipol_quadrupol">      0.00000000 </i>
    <i name="Eion">      0.00000000 </i>
   </dipole>
   <energy>
    <i name="alphaZ">      1.01159476 </i>
    <i name="ewald">   3135.74762516 </i>
    <i name="hartreedc">  -5502.58626666 </i>
    <i name="XCdc">    205.22838682 </i>
    <i name="pawpsdc">   3363.92186177 </i>
    <i name="pawaedc">  -3376.45401862 </i>
    <i name="eentropy">     -0.00000000 </i>
    <i name="bandstr">   -657.68151403 </i>
    <i name="atom">   2743.32276819 </i>
    <i name="e_fr_energy">    -87.48956260 </i>
    <i name="e_wo_entrp">    -87.48956260 </i>
    <i name="e_0_energy">    -87.48956260 </i>
   </energy>
  </scstep>
  <scstep>
   <time name="diag">    0.07    0.07</time>
   <time name="diis">    0.30    0.30</time>
   <time name="orth">    0.01    0.01</time>
   <time name="total">    0.51    0.51</time>
   <dipole>
    <v name="dipole">      0.30403050       0.25433988      -0.12742190 </v>
    <i name="Tr[quadrupol]">     18.10250929 </i>
    <i name="Echarged">      0.00000000 </i>
    <i name="Edipol_quadrupol">      0.00000000 </i>
    <i name="Eion">      0.00000000 </i>
   </dipole>
   <energy>
    <i name="e_fr_energy">    -87.48963355 </i>
    <i name="e_wo_entrp">    -87.48963355 </i>
    <i name="e_0_energy">    -87.48963355 </i>
   </energy>
  </scstep>
  <scstep>
   <time name="diag">    0.07    0.07</time>
   <time name="diis">    0.30    0.30</time>
   <time name="orth">    0.01    0.01</time>
   <time name="total">    0.51    0.51</time>
   <dipole>
    <v name="dipole">      0.30401205       0.25408298      -0.12746009 </v>
    <i name="Tr[quadrupol]">     18.10422812 </i>
    <i name="Echarged">      0.00000000 </i>
    <i name="Edipol_quadrupol">      0.00000000 </i>
    <i name="Eion">      0.00000000 </i>
   </dipole>
   <energy>
    <i name="e_fr_energy">    -87.48962281 </i>
    <i name="e_wo_entrp">    -87.48962281 </i>
    <i name="e_0_energy">    -87.48962281 </i>
   </energy>
  </scstep>
  <scstep>
   <time name="diag">    0.07    0.07</time>
   <time name="diis">    0.30    0.30</time>
   <time name="orth">    0.01    0.01</time>
   <time name="total">    0.50    0.50</time>
   <dipole>
    <v name="dipole">      0.30396304       0.25372497      -0.12751541 </v>
    <i name="Tr[quadrupol]">     18.10651039 </i>
    <i name="Echarged">      0.00000000 </i>
    <i name="Edipol_quadrupol">      0.00000000 </i>
    <i name="Eion">      0.00000000 </i>
   </dipole>
   <energy>
    <i name="e_fr_energy">    -87.48962071 </i>
    <i name="e_wo_entrp">    -87.48962071 </i>
    <i name="e_0_energy">    -87.48962071 </i>
   </energy>
  </scstep>
  <scstep>
   <time name="diag">    0.07    0.07</time>
   <time name="diis">    0.22    0.22</time>
   <time name="orth">    0.01    0.01</time>
   <time name="total">    0.39    0.39</time>
   <dipole>
    <v name="dipole">      0.30392274       0.25352078      -0.12754952 </v>
    <i name="Tr[quadrupol]">     18.10793022 </i>
    <i name="Echarged">      0.00000000 </i>
    <i name="Edipol_quadrupol">      0.00000000 </i>
    <i name="Eion">      0.00000000 </i>
   </dipole>
   <energy>
    <i name="alphaZ">      1.01159486 </i>
    <i name="ewald">   3135.74762516 </i>
    <i name="hartreedc">  -5502.39248560 </i>
    <i name="XCdc">    205.21949981 </i>
    <i name="pawpsdc">   3362.28191975 </i>
    <i name="pawaedc">  -3374.81031175 </i>
    <i name="eentropy">     -0.00000000 </i>
    <i name="bandstr">   -657.87023053 </i>
    <i name="atom">   2743.32276819 </i>
    <i name="e_fr_energy">    -87.48962011 </i>
    <i name="e_wo_entrp">    -87.48962011 </i>
    <i name="e_0_energy">    -87.48962011 </i>
   </energy>
  </scstep>
  <structure>
   <crystal>
    <varray name="basis" >
     <v>      20.00000000       0.00000000       0.00000000 </v>
     <v>       0.00000000      20.00000000       0.00000000 </v>
     <v>       0.00000000       0.00000000      20.00000000 </v>
    </varray>
    <i name="volume">   8000.00000000 </i>
    <varray name="rec_basis" >
     <v>       0.05000000       0.00000000       0.00000000 </v>
     <v>       0.00000000       0.05000000       0.00000000 </v>
     <v>       0.00000000       0.00000000       0.05000000 </v>
    </varray>
   </crystal>
   <varray name="positions" >
    <v>       0.51569079       0.48356093       0.42434968 </v>
    <v>       0.58224243       0.51851381       0.44526435 </v>
    <v>       0.51002512       0.51458025       0.57718227 </v>
    <v>       0.50820031       0.44198503       0.55145737 </v>
    <v>       0.60748340       0.48730491       0.54291770 </v>
    <v>       0.67715943       0.47073908       0.50897529 </v>
    <v>       0.41679040       0.44169065       0.47914256 </v>
    <v>       0.44737577       0.37230534       0.45528187 </v>
    <v>       0.33513261       0.49666800       0.53851997 </v>
    <v>       0.39251321       0.53953152       0.50575729 </v>
    <v>       0.49614366       0.56781628       0.47665596 </v>
    <v>       0.46873260       0.63213384       0.51627486 </v>
    <v>       0.53904212       0.52684264       0.42184795 </v>
    <v>       0.53169311       0.47091711       0.58374322 </v>
    <v>       0.64135544       0.50351688       0.50964737 </v>
    <v>       0.45962647       0.41648549       0.47131769 </v>
    <v>       0.35973086       0.50259007       0.49703536 </v>
    <v>       0.46690278       0.58356200       0.51575908 </v>
   </varray>
  </structure>
  <varray name="forces" >
   <v>      -0.00777837       0.00010924       0.00457258 </v>
   <v>       0.03077266      -0.01068496       0.00467130 </v>
   <v>       0.00543532       0.00168431      -0.00807614 </v>
   <v>      -0.00747338      -0.00777827      -0.01672894 </v>
   <v>       0.03869579       0.01594869      -0.04080980 </v>
   <v>       0.00178700      -0.01416539      -0.00678429 </v>
   <v>       0.02146222      -0.00706170      -0.00193865 </v>
   <v>       0.00068168      -0.00268799      -0.00180307 </v>
   <v>      -0.01231465       0.00005216       0.01633465 </v>
   <v>      -0.04155493      -0.05901050      -0.01176211 </v>
   <v>      -0.01536733       0.00142575       0.02235924 </v>
   <v>      -0.00410495      -0.02644950       0.00335426 </v>
   <v>      -0.01558446       0.02269510      -0.01109298 </v>
   <v>       0.01119062       0.01354970       0.00542335 </v>
   <v>      -0.05442271      -0.01927132       0.05280829 </v>
   <v>      -0.01466454       0.01712124       0.00710838 </v>
   <v>       0.05801695       0.05920669       0.00325525 </v>
   <v>       0.00522309       0.01531674      -0.02089132 </v>
  </varray>
  <varray name="stress" >
   <v>      -0.93967844      -0.00592336       0.00312845 </v>
   <v>      -0.00592336      -0.91846488       0.01429104 </v>
   <v>       0.00312845       0.01429104      -0.96859699 </v>
  </varray>
  <energy>
   <i name="e_fr_energy">    -87.48962011 </i>
   <i name="e_wo_entrp">    -87.48962011 </i>
   <i name="e_0_energy">     -0.00000000 </i>
  </energy>
  <time name="totalsc">    3.02    3.02</time>
 </calculation>
 <calculation>
  <scstep>
   <time name="dav">    0.40    0.40</time>
   <time name="total">    0.52    0.52</time>
   <dipole>
    <v name="dipole">      0.30389265       0.25338573      -0.12757227 </v>
    <i name="Tr[quadrupol]">     18.10898859 </i>
    <i name="Echarged">      0.00000000 </i>
    <i name="Edipol_quadrupol">      0.00000000 </i>
    <i name="Eion">      0.00000000 </i>
   </dipole>
   <energy>
    <i name="alphaZ">      1.01158605 </i>
    <i name="ewald">   3136.18844196 </i>
    <i name="hartreedc">  -5502.66563686 </i>
    <i name="XCdc">    205.22502611 </i>
    <i name="pawpsdc">   3362.25316638 </i>
    <i name="pawaedc">  -3374.78146956 </i>
    <i name="eentropy">     -0.00000000 </i>
    <i name="bandstr">   -658.04361871 </i>
    <i name="atom">   2743.32276819 </i>
    <i name="e_fr_energy">    -87.48973644 </i>
    <i name="e_wo_entrp">    -87.48973644 </i>
    <i name="e_0_energy">    -87.48973644 </i>
   </energy>
  </scstep>
  <scstep>
   <time name="diag">    0.07    0.07</time>
   <time name="diis">    0.30    0.30</time>
   <time name="orth">    0.01    0.01</time>
   <time name="total">    0.51    0.51</time>
   <dipole>
    <v name="dipole">      0.30389781       0.25352684      -0.12754857 </v>
    <i name="Tr[quadrupol]">     18.10790945 </i>
    <i name="Echarged">      0.00000000 </i>
    <i name="Edipol_quadrupol">      0.00000000 </i>
    <i name="Eion">      0.00000000 </i>
   </dipole>
   <energy>
    <i name="e_fr_energy">    -87.48976858 </i>
    <i name="e_wo_entrp">    -87.48976858 </i>
    <i name="e_0_energy">    -87.48976858 </i>
   </energy>
  </scstep>
  <scstep>
   <time name="diag">    0.07    0.07</time>
   <time name="diis">    0.30    0.30</time>
   <time name="orth">    0.01    0.01</time>
   <time name="total">    0.51    0.51</time>
   <dipole>
    <v name="dipole">      0.30390265       0.25365245      -0.12753170 </v>
    <i name="Tr[quadrupol]">     18.10717629 </i>
    <i name="Echarged">      0.00000000 </i>
    <i name="Edipol_quadrupol">      0.00000000 </i>
    <i name="Eion">      0.00000000 </i>
   </dipole>
   <energy>
    <i name="e_fr_energy">    -87.48976651 </i>
    <i name="e_wo_entrp">    -87.48976651 </i>
    <i name="e_0_energy">    -87.48976651 </i>
   </energy>
  </scstep>
  <scstep>
   <time name="diag">    0.07    0.07</time>
   <time name="diis">    0.28    0.28</time>
   <time name="orth">    0.01    0.01</time>
   <time name="total">    0.49    0.49</time>
   <dipole>
    <v name="dipole">      0.30392388       0.25381527      -0.12750905 </v>
    <i name="Tr[quadrupol]">     18.10638189 </i>
    <i name="Echarged">      0.00000000 </i>
    <i name="Edipol_quadrupol">      0.00000000 </i>
    <i name="Eion">      0.00000000 </i>
   </dipole>
   <energy>
    <i name="e_fr_energy">    -87.48976852 </i>
    <i name="e_wo_entrp">    -87.48976852 </i>
    <i name="e_0_energy">    -87.48976852 </i>
   </energy>
  </scstep>
  <scstep>
   <time name="diag">    0.07    0.07</time>
   <time name="diis">    0.22    0.22</time>
   <time name="orth">    0.01    0.01</time>
   <time name="total">    0.39    0.39</time>
   <dipole>
    <v name="dipole">      0.30394458       0.25389914      -0.12749700 </v>
    <i name="Tr[quadrupol]">     18.10598103 </i>
    <i name="Echarged">      0.00000000 </i>
    <i name="Edipol_quadrupol">      0.00000000 </i>
    <i name="Eion">      0.00000000 </i>
   </dipole>
   <energy>
    <i name="alphaZ">      1.01158595 </i>
    <i name="ewald">   3136.18844196 </i>
    <i name="hartreedc">  -5502.78315456 </i>
    <i name="XCdc">    205.23079212 </i>
    <i name="pawpsdc">   3363.30037741 </i>
    <i name="pawaedc">  -3375.83110621 </i>
    <i name="eentropy">     -0.00000000 </i>
    <i name="bandstr">   -657.92947423 </i>
    <i name="atom">   2743.32276819 </i>
    <i name="e_fr_energy">    -87.48976937 </i>
    <i name="e_wo_entrp">    -87.48976937 </i>
    <i name="e_0_energy">    -87.48976937 </i>
   </energy>
  </scstep>
  <structure>
   <crystal>
    <varray name="basis" >
     <v>      20.00000000       0.00000000       0.00000000 </v>
     <v>       0.00000000      20.00000000       0.00000000 </v>
     <v>       0.00000000       0.00000000      20.00000000 </v>
    </varray>
    <i name="volume">   8000.00000000 </i>
    <varray name="rec_basis" >
     <v>       0.05000000       0.00000000       0.00000000 </v>
     <v>       0.00000000       0.05000000       0.00000000 </v>
     <v>       0.00000000       0.00000000       0.05000000 </v>
    </varray>
   </crystal>
   <varray name="positions" >
    <v>       0.51569424       0.48353697       0.42434309 </v>
    <v>       0.58224192       0.51852116       0.44528460 </v>
    <v>       0.51001769       0.51457513       0.57719579 </v>
    <v>       0.50819599       0.44197621       0.55146100 </v>
    <v>       0.60750669       0.48733396       0.54288599 </v>
    <v>       0.67717394       0.47075361       0.50897967 </v>
    <v>       0.41679403       0.44167939       0.47914144 </v>
    <v>       0.44737492       0.37230262       0.45528200 </v>
    <v>       0.33513467       0.49665662       0.53851395 </v>
    <v>       0.39248009       0.53950933       0.50573894 </v>
    <v>       0.49613535       0.56782096       0.47666398 </v>
    <v>       0.46873033       0.63212245       0.51627424 </v>
    <v>       0.53902142       0.52684466       0.42184271 </v>
    <v>       0.53169699       0.47091909       0.58375444 </v>
    <v>       0.64133477       0.50349971       0.50966935 </v>
    <v>       0.45960611       0.41649189       0.47131497 </v>
    <v>       0.35976520       0.50262633       0.49704549 </v>
    <v>       0.46693617       0.58357375       0.51573824 </v>
   </varray>
  </structure>
  <varray name="forces" >
   <v>      -0.00429534       0.00981579       0.00438495 </v>
   <v>       0.01120219      -0.00699496      -0.00671318 </v>
   <v>       0.00509876       0.00248696      -0.00847511 </v>
   <v>      -0.00085750       0.00078550      -0.00746159 </v>
   <v>       0.00436893      -0.00652465      -0.00149087 </v>
   <v>      -0.00537891      -0.01126578      -0.00425710 </v>
   <v>       0.00615064       0.00205487      -0.00023876 </v>
   <v>       0.00066955       0.00013957      -0.00066212 </v>
   <v>      -0.00521415       0.00463215       0.00821943 </v>
   <v>      -0.00141949      -0.01229813       0.00337563 </v>
   <v>      -0.00200878      -0.00160907       0.00458213 </v>
   <v>      -0.00047019      -0.00493720       0.00140343 </v>
   <v>       0.00232609       0.00754021      -0.00169422 </v>
   <v>       0.00225942       0.00436961      -0.00251806 </v>
   <v>      -0.01209935       0.00009940       0.01012402 </v>
   <v>       0.00344285       0.00378151       0.00370340 </v>
   <v>       0.00773959       0.00696136      -0.00319300 </v>
   <v>      -0.01151431       0.00096285       0.00091099 </v>
  </varray>
  <varray name="stress" >
   <v>      -0.92731618       0.00034655      -0.00595434 </v>
   <v>       0.00034655      -0.90650056       0.01472911 </v>
   <v>      -0.00595434       0.01472911      -0.96218026 </v>
  </varray>
  <energy>
   <i name="e_fr_energy">    -87.48976937 </i>
   <i name="e_wo_entrp">    -87.48976937 </i>
   <i name="e_0_energy">     -0.00000000 </i>
  </energy>
  <time name="totalsc">    2.99    3.00</time>
 </calculation>
 <calculation>
  <scstep>
   <time name="dav">    0.42    0.42</time>
   <time name="total">    0.54    0.54</time>
   <dipole>
    <v name="dipole">      0.30396225       0.25394744      -0.12749038 </v>
    <i name="Tr[quadrupol]">     18.10574766 </i>
    <i name="Echarged">      0.00000000 </i>
    <i name="Edipol_quadrupol">      0.00000000 </i>
    <i name="Eion">      0.00000000 </i>
   </dipole>
   <energy>
    <i name="alphaZ">      1.01158517 </i>
    <i name="ewald">   3136.21465993 </i>
    <i name="hartreedc">  -5502.89285249 </i>
    <i name="XCdc">    205.22855909 </i>
    <i name="pawpsdc">   3363.32007606 </i>
    <i name="pawaedc">  -3375.85086347 </i>
    <i name="eentropy">     -0.00000000 </i>
    <i name="bandstr">   -657.84373847 </i>
    <i name="atom">   2743.32276819 </i>
    <i name="e_fr_energy">    -87.48980597 </i>
    <i name="e_wo_entrp">    -87.48980597 </i>
    <i name="e_0_energy">    -87.48980597 </i>
   </energy>
  </scstep>
  <scstep>
   <time name="diag">    0.07    0.07</time>
   <time name="diis">    0.30    0.30</time>
   <time name="orth">    0.01    0.01</time>
   <time name="total">    0.51    0.51</time>
   <dipole>
    <v name="dipole">      0.30391106       0.25403198      -0.12743778 </v>
    <i name="Tr[quadrupol]">     18.10609229 </i>
    <i name="Echarged">      0.00000000 </i>
    <i name="Edipol_quadrupol">      0.00000000 </i>
    <i name="Eion">      0.00000000 </i>
   </dipole>
   <energy>
    <i name="e_fr_energy">    -87.48981660 </i>
    <i name="e_wo_entrp">    -87.48981660 </i>
    <i name="e_0_energy">    -87.48981660 </i>
   </energy>
  </scstep>
  <scstep>
   <time name="diag">    0.07    0.07</time>
   <time name="diis">    0.27    0.27</time>
   <time name="orth">    0.01    0.01</time>
   <time name="total">    0.48    0.48</time>
   <dipole>
    <v name="dipole">      0.30385653       0.25412644      -0.12737216 </v>
    <i name="Tr[quadrupol]">     18.10607084 </i>
    <i name="Echarged">      0.00000000 </i>
    <i name="Edipol_quadrupol">      0.00000000 </i>
    <i name="Eion">      0.00000000 </i>
   </dipole>
   <energy>
    <i name="e_fr_energy">    -87.48981630 </i>
    <i name="e_wo_entrp">    -87.48981630 </i>
    <i name="e_0_energy">    -87.48981630 </i>
   </energy>
  </scstep>
  <scstep>
   <time name="diag">    0.07    0.07</time>
   <time name="diis">    0.25    0.25</time>
   <time name="orth">    0.01    0.01</time>
   <time name="total">    0.42    0.42</time>
   <dipole>
    <v name="dipole">      0.30375022       0.25429025      -0.12725756 </v>
    <i name="Tr[quadrupol]">     18.10605381 </i>
    <i name="Echarged">      0.00000000 </i>
    <i name="Edipol_quadrupol">      0.00000000 </i>
    <i name="Eion">      0.00000000 </i>
   </dipole>
   <energy>
    <i name="alphaZ">      1.01158339 </i>
    <i name="ewald">   3136.21465993 </i>
    <i name="hartreedc">  -5502.84369693 </i>
    <i name="XCdc">    205.22542458 </i>
    <i name="pawpsdc">   3362.80394845 </i>
    <i name="pawaedc">  -3375.33339602 </i>
    <i name="eentropy">     -0.00000000 </i>
    <i name="bandstr">   -657.89110867 </i>
    <i name="atom">   2743.32276819 </i>
    <i name="e_fr_energy">    -87.48981707 </i>
    <i name="e_wo_entrp">    -87.48981707 </i>
    <i name="e_0_energy">    -87.48981707 </i>
   </energy>
  </scstep>
  <structure>
   <crystal>
    <varray name="basis" >
     <v>      20.00000000       0.00000000       0.00000000 </v>
     <v>       0.00000000      20.00000000       0.00000000 </v>
     <v>       0.00000000       0.00000000      20.00000000 </v>
    </varray>
    <i name="volume">   8000.00000000 </i>
    <varray name="rec_basis" >
     <v>       0.05000000       0.00000000       0.00000000 </v>
     <v>       0.00000000       0.05000000       0.00000000 </v>
     <v>       0.00000000       0.00000000       0.05000000 </v>
    </varray>
   </crystal>
   <varray name="positions" >
    <v>       0.51568387       0.48356698       0.42435488 </v>
    <v>       0.58226567       0.51850358       0.44526257 </v>
    <v>       0.51003131       0.51458236       0.57717269 </v>
    <v>       0.50819587       0.44198131       0.55144390 </v>
    <v>       0.60750676       0.48730889       0.54289526 </v>
    <v>       0.67715696       0.47072424       0.50896901 </v>
    <v>       0.41680554       0.44168812       0.47914138 </v>
    <v>       0.44737666       0.37230398       0.45528056 </v>
    <v>       0.33512291       0.49667080       0.53853358 </v>
    <v>       0.39249006       0.53949216       0.50575321 </v>
    <v>       0.49613438       0.56781575       0.47667048 </v>
    <v>       0.46873023       0.63211653       0.51627743 </v>
    <v>       0.53903441       0.52685972       0.42184120 </v>
    <v>       0.53170023       0.47092750       0.58374476 </v>
    <v>       0.64131742       0.50350663       0.50968203 </v>
    <v>       0.45962131       0.41649734       0.47132382 </v>
    <v>       0.35976803       0.50262678       0.49703481 </v>
    <v>       0.46689891       0.58357118       0.51574831 </v>
   </varray>
  </structure>
  <varray name="forces" >
   <v>      -0.00450977       0.00775232       0.00326937 </v>
   <v>       0.00759914      -0.00474021      -0.00588733 </v>
   <v>       0.00337290       0.00599697      -0.00829249 </v>
   <v>       0.00237558       0.00428886      -0.00280536 </v>
   <v>      -0.00068034      -0.00473239       0.00028406 </v>
   <v>      -0.02155482       0.00614298      -0.00521846 </v>
   <v>       0.00747323       0.00107727       0.00004484 </v>
   <v>       0.00383546       0.00897177       0.00251885 </v>
   <v>       0.00933254       0.00653526      -0.01839693 </v>
   <v>       0.00125569      -0.00761154       0.00182673 </v>
   <v>      -0.00964636       0.00119564       0.01488400 </v>
   <v>      -0.00195522      -0.00187356       0.00276240 </v>
   <v>       0.00457004       0.00827292       0.00044564 </v>
   <v>      -0.00034438      -0.00365992      -0.00608783 </v>
   <v>       0.01106042      -0.01837224       0.00761109 </v>
   <v>      -0.00173891      -0.00413755       0.00030340 </v>
   <v>      -0.01097159       0.00028825       0.02426216 </v>
   <v>       0.00052638      -0.00539485      -0.01152413 </v>
  </varray>
  <varray name="stress" >
   <v>      -0.93208112       0.00331345      -0.00296761 </v>
   <v>       0.00331345      -0.90957343       0.01344236 </v>
   <v>      -0.00296761       0.01344236      -0.96960604 </v>
  </varray>
  <energy>
   <i name="e_fr_energy">    -87.48981707 </i>
   <i name="e_wo_entrp">    -87.48981707 </i>
   <i name="e_0_energy">     -0.00000000 </i>
  </energy>
  <time name="totalsc">    2.52    2.53</time>
 </calculation>
 <calculation>
  <scstep>
   <time name="dav">    0.42    0.42</time>
   <time name="total">    0.54    0.54</time>
   <dipole>
    <v name="dipole">      0.30371401       0.25433150      -0.12722827 </v>
    <i name="Tr[quadrupol]">     18.10610609 </i>
    <i name="Echarged">      0.00000000 </i>
    <i name="Edipol_quadrupol">      0.00000000 </i>
    <i name="Eion">      0.00000000 </i>
   </dipole>
   <energy>
    <i name="alphaZ">      1.01158281 </i>
    <i name="ewald">   3136.22363162 </i>
    <i name="hartreedc">  -5502.87821958 </i>
    <i name="XCdc">    205.22451956 </i>
    <i name="pawpsdc">   3362.78651697 </i>
    <i name="pawaedc">  -3375.31587689 </i>
    <i name="eentropy">     -0.00000000 </i>
    <i name="bandstr">   -657.86474130 </i>
    <i name="atom">   2743.32276819 </i>
    <i name="e_fr_energy">    -87.48981863 </i>
    <i name="e_wo_entrp">    -87.48981863 </i>
    <i name="e_0_energy">    -87.48981863 </i>
   </energy>
  </scstep>
  <scstep>
   <time name="diag">    0.07    0.07</time>
   <time name="diis">    0.30    0.30</time>
   <time name="orth">    0.01    0.01</time>
   <time name="total">    0.51    0.51</time>
   <dipole>
    <v name="dipole">      0.30366914       0.25438115      -0.12719269 </v>
    <i name="Tr[quadrupol]">     18.10628261 </i>
    <i name="Echarged">      0.00000000 </i>
    <i name="Edipol_quadrupol">      0.00000000 </i>
    <i name="Eion">      0.00000000 </i>
   </dipole>
   <energy>
    <i name="e_fr_energy">    -87.48981989 </i>
    <i name="e_wo_entrp">    -87.48981989 </i>
    <i name="e_0_energy">    -87.48981989 </i>
   </energy>
  </scstep>
  <scstep>
   <time name="diag">    0.07    0.07</time>
   <time name="diis">    0.21    0.21</time>
   <time name="orth">    0.01    0.01</time>
   <time name="total">    0.41    0.41</time>
   <dipole>
    <v name="dipole">      0.30362765       0.25443161      -0.12715571 </v>
    <i name="Tr[quadrupol]">     18.10632029 </i>
    <i name="Echarged">      0.00000000 </i>
    <i name="Edipol_quadrupol">      0.00000000 </i>
    <i name="Eion">      0.00000000 </i>
   </dipole>
   <energy>
    <i name="e_fr_energy">    -87.48981988 </i>
    <i name="e_wo_entrp">    -87.48981988 </i>
    <i name="e_0_energy">    -87.48981988 </i>
   </energy>
  </scstep>
  <scstep>
   <time name="diag">    0.07    0.07</time>
   <time name="diis">    0.21    0.21</time>
   <time name="orth">    0.01    0.01</time>
   <time name="total">    0.38    0.39</time>
   <dipole>
    <v name="dipole">      0.30354406       0.25453015      -0.12708477 </v>
    <i name="Tr[quadrupol]">     18.10640734 </i>
    <i name="Echarged">      0.00000000 </i>
    <i name="Edipol_quadrupol">      0.00000000 </i>
    <i name="Eion">      0.00000000 </i>
   </dipole>
   <energy>
    <i name="alphaZ">      1.01158151 </i>
    <i name="ewald">   3136.22363162 </i>
    <i name="hartreedc">  -5502.85988765 </i>
    <i name="XCdc">    205.22343581 </i>
    <i name="pawpsdc">   3362.59049156 </i>
    <i name="pawaedc">  -3375.11931293 </i>
    <i name="eentropy">     -0.00000000 </i>
    <i name="bandstr">   -657.88252820 </i>
    <i name="atom">   2743.32276819 </i>
    <i name="e_fr_energy">    -87.48982009 </i>
    <i name="e_wo_entrp">    -87.48982009 </i>
    <i name="e_0_energy">    -87.48982009 </i>
   </energy>
  </scstep>
  <structure>
   <crystal>
    <varray name="basis" >
     <v>      20.00000000       0.00000000       0.00000000 </v>
     <v>       0.00000000      20.00000000       0.00000000 </v>
     <v>       0.00000000       0.00000000      20.00000000 </v>
    </varray>
    <i name="volume">   8000.00000000 </i>
    <varray name="rec_basis" >
     <v>       0.05000000       0.00000000       0.00000000 </v>
     <v>       0.00000000       0.05000000       0.00000000 </v>
     <v>       0.00000000       0.00000000       0.05000000 </v>
    </varray>
   </crystal>
   <varray name="positions" >
    <v>       0.51568030       0.48357730       0.42435894 </v>
    <v>       0.58227383       0.51849753       0.44525499 </v>
    <v>       0.51003600       0.51458485       0.57716474 </v>
    <v>       0.50819584       0.44198307       0.55143802 </v>
    <v>       0.60750679       0.48730026       0.54289845 </v>
    <v>       0.67715112       0.47071414       0.50896534 </v>
    <v>       0.41680950       0.44169112       0.47914135 </v>
    <v>       0.44737726       0.37230444       0.45528006 </v>
    <v>       0.33511886       0.49667568       0.53854033 </v>
    <v>       0.39249349       0.53948625       0.50575812 </v>
    <v>       0.49613404       0.56781395       0.47667271 </v>
    <v>       0.46873019       0.63211449       0.51627853 </v>
    <v>       0.53903887       0.52686490       0.42184068 </v>
    <v>       0.53170134       0.47093039       0.58374143 </v>
    <v>       0.64131145       0.50350902       0.50968640 </v>
    <v>       0.45962653       0.41649921       0.47132686 </v>
    <v>       0.35976901       0.50262694       0.49703114 </v>
    <v>       0.46688609       0.58357029       0.51575177 </v>
   </varray>
  </structure>
  <varray name="forces" >
   <v>      -0.00464619       0.00710774       0.00294154 </v>
   <v>       0.00627644      -0.00392000      -0.00560637 </v>
   <v>       0.00280334       0.00724010      -0.00822296 </v>
   <v>       0.00346075       0.00554257      -0.00116449 </v>
   <v>      -0.00242575      -0.00409733       0.00096371 </v>
   <v>      -0.02706105       0.01203168      -0.00551872 </v>
   <v>       0.00786221       0.00086025       0.00021923 </v>
   <v>       0.00493437       0.01216343       0.00367945 </v>
   <v>       0.01429214       0.00726382      -0.02744629 </v>
   <v>       0.00211473      -0.00600630       0.00133538 </v>
   <v>      -0.01235014       0.00221160       0.01849918 </v>
   <v>      -0.00244067      -0.00098539       0.00325955 </v>
   <v>       0.00490929       0.00836238       0.00128963 </v>
   <v>      -0.00116380      -0.00654729      -0.00728318 </v>
   <v>       0.01920429      -0.02489549       0.00646288 </v>
   <v>      -0.00385412      -0.00691515      -0.00121535 </v>
   <v>      -0.01724991      -0.00204368       0.03396077 </v>
   <v>       0.00533407      -0.00737293      -0.01615396 </v>
  </varray>
  <varray name="stress" >
   <v>      -0.93321994       0.00431353      -0.00195066 </v>
   <v>       0.00431353      -0.91017850       0.01298873 </v>
   <v>      -0.00195066       0.01298873      -0.97164224 </v>
  </varray>
  <energy>
   <i name="e_fr_energy">    -87.48982009 </i>
   <i name="e_wo_entrp">    -87.48982009 </i>
   <i name="e_0_energy">     -0.00000000 </i>
  </energy>
  <time name="totalsc">    2.42    2.42</time>
 </calculation>
 <calculation>
  <scstep>
   <time name="dav">    0.42    0.42</time>
   <time name="total">    0.54    0.54</time>
   <dipole>
    <v name="dipole">      0.30351633       0.25455882      -0.12706547 </v>
    <i name="Tr[quadrupol]">     18.10645617 </i>
    <i name="Echarged">      0.00000000 </i>
    <i name="Edipol_quadrupol">      0.00000000 </i>
    <i name="Eion">      0.00000000 </i>
   </dipole>
   <energy>
    <i name="alphaZ">      1.01158220 </i>
    <i name="ewald">   3136.26136188 </i>
    <i name="hartreedc">  -5502.89347930 </i>
    <i name="XCdc">    205.22380331 </i>
    <i name="pawpsdc">   3362.58757067 </i>
    <i name="pawaedc">  -3375.11637807 </i>
    <i name="eentropy">     -0.00000000 </i>
    <i name="bandstr">   -657.88706574 </i>
    <i name="atom">   2743.32276819 </i>
    <i name="e_fr_energy">    -87.48983686 </i>
    <i name="e_wo_entrp">    -87.48983686 </i>
    <i name="e_0_energy">    -87.48983686 </i>
   </energy>
  </scstep>
  <scstep>
   <time name="diag">    0.07    0.07</time>
   <time name="diis">    0.28    0.28</time>
   <time name="orth">    0.01    0.01</time>
   <time name="total">    0.49    0.49</time>
   <dipole>
    <v name="dipole">      0.30349073       0.25457828      -0.12704666 </v>
    <i name="Tr[quadrupol]">     18.10659999 </i>
    <i name="Echarged">      0.00000000 </i>
    <i name="Edipol_quadrupol">      0.00000000 </i>
    <i name="Eion">      0.00000000 </i>
   </dipole>
   <energy>
    <i name="e_fr_energy">    -87.48983756 </i>
    <i name="e_wo_entrp">    -87.48983756 </i>
    <i name="e_0_energy">    -87.48983756 </i>
   </energy>
  </scstep>
  <scstep>
   <time name="diag">    0.07    0.07</time>
   <time name="diis">    0.21    0.21</time>
   <time name="orth">    0.01    0.01</time>
   <time name="total">    0.42    0.42</time>
   <dipole>
    <v name="dipole">      0.30346422       0.25459954      -0.12702247 </v>
    <i name="Tr[quadrupol]">     18.10669208 </i>
    <i name="Echarged">      0.00000000 </i>
    <i name="Edipol_quadrupol">      0.00000000 </i>
    <i name="Eion">      0.00000000 </i>
   </dipole>
   <energy>
    <i name="e_fr_energy">    -87.48983767 </i>
    <i name="e_wo_entrp">    -87.48983767 </i>
    <i name="e_0_energy">    -87.48983767 </i>
   </energy>
  </scstep>
  <scstep>
   <time name="diag">    0.07    0.07</time>
   <time name="diis">    0.21    0.21</time>
   <time name="orth">    0.01    0.01</time>
   <time name="total">    0.39    0.39</time>
   <dipole>
    <v name="dipole">      0.30341417       0.25464103      -0.12697799 </v>
    <i name="Tr[quadrupol]">     18.10686941 </i>
    <i name="Echarged">      0.00000000 </i>
    <i name="Edipol_quadrupol">      0.00000000 </i>
    <i name="Eion">      0.00000000 </i>
   </dipole>
   <energy>
    <i name="alphaZ">      1.01158142 </i>
    <i name="ewald">   3136.26136188 </i>
    <i name="hartreedc">  -5502.89239885 </i>
    <i name="XCdc">    205.22385668 </i>
    <i name="pawpsdc">   3362.60445740 </i>
    <i name="pawaedc">  -3375.13324254 </i>
    <i name="eentropy">     -0.00000000 </i>
    <i name="bandstr">   -657.88822211 </i>
    <i name="atom">   2743.32276819 </i>
    <i name="e_fr_energy">    -87.48983792 </i>
    <i name="e_wo_entrp">    -87.48983792 </i>
    <i name="e_0_energy">    -87.48983792 </i>
   </energy>
  </scstep>
  <structure>
   <crystal>
    <varray name="basis" >
     <v>      20.00000000       0.00000000       0.00000000 </v>
     <v>       0.00000000      20.00000000       0.00000000 </v>
     <v>       0.00000000       0.00000000      20.00000000 </v>
    </varray>
    <i name="volume">   8000.00000000 </i>
    <varray name="rec_basis" >
     <v>       0.05000000       0.00000000       0.00000000 </v>
     <v>       0.00000000       0.05000000       0.00000000 </v>
     <v>       0.00000000       0.00000000       0.05000000 </v>
    </varray>
   </crystal>
   <varray name="positions" >
    <v>       0.51567702       0.48358583       0.42436232 </v>
    <v>       0.58228068       0.51849257       0.44524867 </v>
    <v>       0.51003981       0.51458772       0.57715777 </v>
    <v>       0.50819632       0.44198516       0.55143358 </v>
    <v>       0.60750645       0.48729340       0.54290090 </v>
    <v>       0.67714290       0.47070859       0.50896187 </v>
    <v>       0.41681352       0.44169342       0.47914137 </v>
    <v>       0.44737842       0.37230657       0.45528024 </v>
    <v>       0.33511803       0.49668029       0.53854119 </v>
    <v>       0.39249629       0.53948109       0.50576188 </v>
    <v>       0.49613198       0.56781298       0.47667706 </v>
    <v>       0.46872981       0.63211287       0.51627981 </v>
    <v>       0.53904283       0.52686989       0.42184049 </v>
    <v>       0.53170197       0.47093153       0.58373794 </v>
    <v>       0.64130995       0.50350708       0.50969051 </v>
    <v>       0.45962976       0.41649955       0.47132889 </v>
    <v>       0.35976718       0.50262675       0.49703348 </v>
    <v>       0.46687758       0.58356857       0.51575190 </v>
   </varray>
  </structure>
  <varray name="forces" >
   <v>      -0.00428595       0.00730321       0.00261578 </v>
   <v>       0.00523510      -0.00323342      -0.00542016 </v>
   <v>       0.00297235       0.00683504      -0.00796241 </v>
   <v>       0.00346537       0.00545882      -0.00103452 </v>
   <v>      -0.00308001      -0.00363816       0.00106810 </v>
   <v>      -0.02489763       0.01052702      -0.00567831 </v>
   <v>       0.00765150       0.00067353       0.00042932 </v>
   <v>       0.00486116       0.01172582       0.00352706 </v>
   <v>       0.01292137       0.00669293      -0.02541929 </v>
   <v>       0.00208976      -0.00530747       0.00110484 </v>
   <v>      -0.01238887       0.00235874       0.01858703 </v>
   <v>      -0.00276185      -0.00128435       0.00348159 </v>
   <v>       0.00529806       0.00758277       0.00188758 </v>
   <v>      -0.00149318      -0.00628794      -0.00736647 </v>
   <v>       0.01837458      -0.02373448       0.00595173 </v>
   <v>      -0.00402263      -0.00621611      -0.00121817 </v>
   <v>      -0.01633775      -0.00233801       0.03215893 </v>
   <v>       0.00639863      -0.00711795      -0.01671264 </v>
  </varray>
  <varray name="stress" >
   <v>      -0.93283223       0.00435596      -0.00222428 </v>
   <v>       0.00435596      -0.91000859       0.01302206 </v>
   <v>      -0.00222428       0.01302206      -0.97136768 </v>
  </varray>
  <energy>
   <i name="e_fr_energy">    -87.48983792 </i>
   <i name="e_wo_entrp">    -87.48983792 </i>
   <i name="e_0_energy">     -0.00000000 </i>
  </energy>
  <time name="totalsc">    2.41    2.41</time>
 </calculation>
 <calculation>
  <scstep>
   <time name="dav">    0.45    0.45</time>
   <time name="total">    0.57    0.57</time>
   <dipole>
    <v name="dipole">      0.30340305       0.25465100      -0.12697021 </v>
    <i name="Tr[quadrupol]">     18.10691465 </i>
    <i name="Echarged">      0.00000000 </i>
    <i name="Edipol_quadrupol">      0.00000000 </i>
    <i name="Eion">      0.00000000 </i>
   </dipole>
   <energy>
    <i name="alphaZ">      1.01158401 </i>
    <i name="ewald">   3136.37440722 </i>
    <i name="hartreedc">  -5502.99413388 </i>
    <i name="XCdc">    205.22496887 </i>
    <i name="pawpsdc">   3362.60377319 </i>
    <i name="pawaedc">  -3375.13255225 </i>
    <i name="eentropy">     -0.00000000 </i>
    <i name="bandstr">   -657.90069248 </i>
    <i name="atom">   2743.32276819 </i>
    <i name="e_fr_energy">    -87.48987714 </i>
    <i name="e_wo_entrp">    -87.48987714 </i>
    <i name="e_0_energy">    -87.48987714 </i>
   </energy>
  </scstep>
  <scstep>
   <time name="diag">    0.07    0.07</time>
   <time name="diis">    0.30    0.30</time>
   <time name="orth">    0.01    0.01</time>
   <time name="total">    0.51    0.51</time>
   <dipole>
    <v name="dipole">      0.30337007       0.25466310      -0.12694181 </v>
    <i name="Tr[quadrupol]">     18.10729612 </i>
    <i name="Echarged">      0.00000000 </i>
    <i name="Edipol_quadrupol">      0.00000000 </i>
    <i name="Eion">      0.00000000 </i>
   </dipole>
   <energy>
    <i name="e_fr_energy">    -87.48988272 </i>
    <i name="e_wo_entrp">    -87.48988272 </i>
    <i name="e_0_energy">    -87.48988272 </i>
   </energy>
  </scstep>
  <scstep>
   <time name="diag">    0.07    0.07</time>
   <time name="diis">    0.21    0.21</time>
   <time name="orth">    0.01    0.01</time>
   <time name="total">    0.42    0.42</time>
   <dipole>
    <v name="dipole">      0.30333257       0.25468375      -0.12689435 </v>
    <i name="Tr[quadrupol]">     18.10751433 </i>
    <i name="Echarged">      0.00000000 </i>
    <i name="Edipol_quadrupol">      0.00000000 </i>
    <i name="Eion">      0.00000000 </i>
   </dipole>
   <energy>
    <i name="e_fr_energy">    -87.48988283 </i>
    <i name="e_wo_entrp">    -87.48988283 </i>
    <i name="e_0_energy">    -87.48988283 </i>
   </energy>
  </scstep>
  <scstep>
   <time name="diag">    0.07    0.07</time>
   <time name="diis">    0.21    0.21</time>
   <time name="orth">    0.01    0.01</time>
   <time name="total">    0.39    0.39</time>
   <dipole>
    <v name="dipole">      0.30325879       0.25472453      -0.12680823 </v>
    <i name="Tr[quadrupol]">     18.10795821 </i>
    <i name="Echarged">      0.00000000 </i>
    <i name="Edipol_quadrupol">      0.00000000 </i>
    <i name="Eion">      0.00000000 </i>
   </dipole>
   <energy>
    <i name="alphaZ">      1.01158287 </i>
    <i name="ewald">   3136.37440722 </i>
    <i name="hartreedc">  -5502.99161929 </i>
    <i name="XCdc">    205.22507675 </i>
    <i name="pawpsdc">   3362.66819098 </i>
    <i name="pawaedc">  -3375.19696264 </i>
    <i name="eentropy">     -0.00000000 </i>
    <i name="bandstr">   -657.90332733 </i>
    <i name="atom">   2743.32276819 </i>
    <i name="e_fr_energy">    -87.48988325 </i>
    <i name="e_wo_entrp">    -87.48988325 </i>
    <i name="e_0_energy">    -87.48988325 </i>
   </energy>
  </scstep>
  <structure>
   <crystal>
    <varray name="basis" >
     <v>      20.00000000       0.00000000       0.00000000 </v>
[...]
       </set>
       <set comment="band 26">
        <r>  0.0001  0.0003  0.0000  0.0002  0.0000  0.0000  0.0000  0.0000  0.0000 </r>
        <r>  0.0000  0.0000  0.0001  0.0001  0.0000  0.0000  0.0000  0.0000  0.0000 </r>
        <r>  0.0000  0.0003  0.0000  0.0001  0.0000  0.0000  0.0000  0.0000  0.0000 </r>
        <r>  0.0001  0.0001  0.0002  0.0002  0.0000  0.0000  0.0000  0.0000  0.0000 </r>
        <r>  0.0001  0.0000  0.0000  0.0000  0.0000  0.0000  0.0000  0.0000  0.0000 </r>
        <r>  0.0002  0.0007  0.0000  0.0009  0.0000  0.0000  0.0000  0.0000  0.0000 </r>
        <r>  0.0007  0.0000  0.0000  0.0000  0.0000  0.0000  0.0000  0.0000  0.0000 </r>
        <r>  0.0017  0.0053  0.0007  0.0004  0.0000  0.0000  0.0000  0.0000  0.0000 </r>
        <r>  0.0006  0.0001  0.0014  0.0005  0.0000  0.0000  0.0000  0.0000  0.0000 </r>
        <r>  0.0004  0.0004  0.0000  0.0005  0.0000  0.0000  0.0000  0.0000  0.0000 </r>
        <r>  0.0010  0.0000  0.0000  0.0000  0.0000  0.0000  0.0000  0.0000  0.0000 </r>
        <r>  0.0019  0.0063  0.0000  0.0000  0.0000  0.0000  0.0000  0.0000  0.0000 </r>
        <r>  0.0000  0.0056  0.0004  0.0007  0.0000  0.0000  0.0000  0.0000  0.0000 </r>
        <r>  0.0002  0.0033  0.0010  0.0008  0.0000  0.0000  0.0000  0.0000  0.0000 </r>
        <r>  0.0017  0.0041  0.0000  0.0008  0.0000  0.0000  0.0000  0.0000  0.0000 </r>
        <r>  0.0072  0.0131  0.0016  0.0001  0.0000  0.0000  0.0000  0.0000  0.0000 </r>
        <r>  0.0020  0.0057  0.0056  0.0011  0.0000  0.0000  0.0000  0.0000  0.0000 </r>
        <r>  0.0090  0.0125  0.0000  0.0006  0.0000  0.0000  0.0000  0.0000  0.0000 </r>
       </set>
       <set comment="band 27">
        <r>  0.0002  0.0000  0.0000  0.0000  0.0000  0.0000  0.0000  0.0000  0.0000 </r>
        <r>  0.0003  0.0000  0.0002  0.0008  0.0000  0.0000  0.0000  0.0000  0.0000 </r>
        <r>  0.0004  0.0003  0.0000  0.0001  0.0000  0.0000  0.0000  0.0000  0.0000 </r>
        <r>  0.0001  0.0000  0.0000  0.0000  0.0000  0.0000  0.0000  0.0000  0.0000 </r>
        <r>  0.0012  0.0000  0.0002  0.0003  0.0000  0.0000  0.0000  0.0000  0.0000 </r>
        <r>  0.0030  0.0035  0.0000  0.0039  0.0000  0.0000  0.0000  0.0000  0.0000 </r>
        <r>  0.0002  0.0002  0.0000  0.0003  0.0000  0.0000  0.0000  0.0000  0.0000 </r>
        <r>  0.0005  0.0019  0.0003  0.0001  0.0000  0.0000  0.0000  0.0000  0.0000 </r>
        <r>  0.0013  0.0000  0.0027  0.0010  0.0000  0.0000  0.0000  0.0000  0.0000 </r>
        <r>  0.0004  0.0000  0.0000  0.0000  0.0000  0.0000  0.0000  0.0000  0.0000 </r>
        <r>  0.0002  0.0001  0.0001  0.0000  0.0000  0.0000  0.0000  0.0000  0.0000 </r>
        <r>  0.0005  0.0021  0.0000  0.0000  0.0000  0.0000  0.0000  0.0000  0.0000 </r>
        <r>  0.0023  0.0001  0.0007  0.0021  0.0000  0.0000  0.0000  0.0000  0.0000 </r>
        <r>  0.0021  0.0014  0.0004  0.0032  0.0000  0.0000  0.0000  0.0000  0.0000 </r>
        <r>  0.0137  0.0075  0.0001  0.0050  0.0000  0.0000  0.0000  0.0000  0.0000 </r>
        <r>  0.0015  0.0035  0.0002  0.0067  0.0000  0.0000  0.0000  0.0000  0.0000 </r>
        <r>  0.0050  0.0015  0.0041  0.0026  0.0000  0.0000  0.0000  0.0000  0.0000 </r>
        <r>  0.0021  0.0047  0.0000  0.0038  0.0000  0.0000  0.0000  0.0000  0.0000 </r>
       </set>
       <set comment="band 28">
        <r>  0.0003  0.0003  0.0000  0.0000  0.0000  0.0000  0.0000  0.0000  0.0000 </r>
        <r>  0.0000  0.0000  0.0000  0.0000  0.0000  0.0000  0.0000  0.0000  0.0000 </r>
        <r>  0.0000  0.0000  0.0000  0.0000  0.0000  0.0000  0.0000  0.0000  0.0000 </r>
        <r>  0.0000  0.0000  0.0000  0.0000  0.0000  0.0000  0.0000  0.0000  0.0000 </r>
        <r>  0.0005  0.0000  0.0000  0.0001  0.0000  0.0000  0.0000  0.0000  0.0000 </r>
        <r>  0.0007  0.0014  0.0000  0.0018  0.0000  0.0000  0.0000  0.0000  0.0000 </r>
        <r>  0.0001  0.0000  0.0000  0.0000  0.0000  0.0000  0.0000  0.0000  0.0000 </r>
        <r>  0.0014  0.0025  0.0003  0.0002  0.0000  0.0000  0.0000  0.0000  0.0000 </r>
        <r>  0.0013  0.0001  0.0039  0.0013  0.0000  0.0000  0.0000  0.0000  0.0000 </r>
        <r>  0.0001  0.0000  0.0001  0.0000  0.0000  0.0000  0.0000  0.0000  0.0000 </r>
        <r>  0.0002  0.0001  0.0001  0.0000  0.0000  0.0000  0.0000  0.0000  0.0000 </r>
        <r>  0.0016  0.0044  0.0000  0.0000  0.0000  0.0000  0.0000  0.0000  0.0000 </r>
        <r>  0.0010  0.0000  0.0000  0.0018  0.0000  0.0000  0.0000  0.0000  0.0000 </r>
        <r>  0.0002  0.0001  0.0006  0.0006  0.0000  0.0000  0.0000  0.0000  0.0000 </r>
        <r>  0.0027  0.0046  0.0006  0.0037  0.0000  0.0000  0.0000  0.0000  0.0000 </r>
        <r>  0.0026  0.0049  0.0034  0.0000  0.0000  0.0000  0.0000  0.0000  0.0000 </r>
        <r>  0.0022  0.0001  0.0105  0.0065  0.0000  0.0000  0.0000  0.0000  0.0000 </r>
        <r>  0.0030  0.0118  0.0006  0.0009  0.0000  0.0000  0.0000  0.0000  0.0000 </r>
       </set>
       <set comment="band 29">
        <r>  0.0000  0.0001  0.0000  0.0000  0.0000  0.0000  0.0000  0.0000  0.0000 </r>
        <r>  0.0000  0.0000  0.0000  0.0000  0.0000  0.0000  0.0000  0.0000  0.0000 </r>
        <r>  0.0001  0.0001  0.0000  0.0000  0.0000  0.0000  0.0000  0.0000  0.0000 </r>
        <r>  0.0001  0.0001  0.0000  0.0000  0.0000  0.0000  0.0000  0.0000  0.0000 </r>
        <r>  0.0001  0.0000  0.0000  0.0000  0.0000  0.0000  0.0000  0.0000  0.0000 </r>
        <r>  0.0001  0.0001  0.0000  0.0001  0.0000  0.0000  0.0000  0.0000  0.0000 </r>
        <r>  0.0001  0.0000  0.0000  0.0000  0.0000  0.0000  0.0000  0.0000  0.0000 </r>
        <r>  0.0001  0.0000  0.0000  0.0000  0.0000  0.0000  0.0000  0.0000  0.0000 </r>
        <r>  0.0002  0.0000  0.0002  0.0001  0.0000  0.0000  0.0000  0.0000  0.0000 </r>
        <r>  0.0000  0.0000  0.0000  0.0000  0.0000  0.0000  0.0000  0.0000  0.0000 </r>
        <r>  0.0000  0.0000  0.0000  0.0000  0.0000  0.0000  0.0000  0.0000  0.0000 </r>
        <r>  0.0001  0.0000  0.0000  0.0000  0.0000  0.0000  0.0000  0.0000  0.0000 </r>
        <r>  0.0002  0.0001  0.0002  0.0000  0.0000  0.0000  0.0000  0.0000  0.0000 </r>
        <r>  0.0007  0.0000  0.0002  0.0001  0.0000  0.0000  0.0000  0.0000  0.0000 </r>
        <r>  0.0006  0.0004  0.0000  0.0000  0.0000  0.0000  0.0000  0.0000  0.0000 </r>
        <r>  0.0006  0.0000  0.0001  0.0000  0.0000  0.0000  0.0000  0.0000  0.0000 </r>
        <r>  0.0006  0.0000  0.0007  0.0000  0.0000  0.0000  0.0000  0.0000  0.0000 </r>
        <r>  0.0004  0.0001  0.0000  0.0000  0.0000  0.0000  0.0000  0.0000  0.0000 </r>
       </set>
       <set comment="band 30">
        <r>  0.0002  0.0001  0.0000  0.0001  0.0000  0.0000  0.0000  0.0000  0.0000 </r>
        <r>  0.0003  0.0000  0.0000  0.0001  0.0000  0.0000  0.0000  0.0000  0.0000 </r>
        <r>  0.0007  0.0004  0.0000  0.0000  0.0000  0.0000  0.0000  0.0000  0.0000 </r>
        <r>  0.0005  0.0002  0.0001  0.0000  0.0000  0.0000  0.0000  0.0000  0.0000 </r>
        <r>  0.0000  0.0000  0.0001  0.0001  0.0000  0.0000  0.0000  0.0000  0.0000 </r>
        <r>  0.0001  0.0001  0.0000  0.0001  0.0000  0.0000  0.0000  0.0000  0.0000 </r>
        <r>  0.0000  0.0000  0.0000  0.0000  0.0000  0.0000  0.0000  0.0000  0.0000 </r>
        <r>  0.0000  0.0000  0.0000  0.0000  0.0000  0.0000  0.0000  0.0000  0.0000 </r>
        <r>  0.0003  0.0000  0.0001  0.0000  0.0000  0.0000  0.0000  0.0000  0.0000 </r>
        <r>  0.0001  0.0000  0.0000  0.0000  0.0000  0.0000  0.0000  0.0000  0.0000 </r>
        <r>  0.0000  0.0000  0.0000  0.0001  0.0000  0.0000  0.0000  0.0000  0.0000 </r>
        <r>  0.0000  0.0000  0.0000  0.0000  0.0000  0.0000  0.0000  0.0000  0.0000 </r>
        <r>  0.0015  0.0002  0.0008  0.0000  0.0000  0.0000  0.0000  0.0000  0.0000 </r>
        <r>  0.0034  0.0000  0.0005  0.0009  0.0000  0.0000  0.0000  0.0000  0.0000 </r>
        <r>  0.0002  0.0000  0.0020  0.0005  0.0000  0.0000  0.0000  0.0000  0.0000 </r>
        <r>  0.0000  0.0012  0.0037  0.0002  0.0000  0.0000  0.0000  0.0000  0.0000 </r>
        <r>  0.0011  0.0003  0.0003  0.0011  0.0000  0.0000  0.0000  0.0000  0.0000 </r>
        <r>  0.0000  0.0000  0.0031  0.0005  0.0000  0.0000  0.0000  0.0000  0.0000 </r>
       </set>
       <set comment="band 31">
        <r>  0.0001  0.0001  0.0000  0.0000  0.0000  0.0000  0.0000  0.0000  0.0000 </r>
        <r>  0.0001  0.0000  0.0000  0.0000  0.0000  0.0000  0.0000  0.0000  0.0000 </r>
        <r>  0.0000  0.0001  0.0000  0.0000  0.0000  0.0000  0.0000  0.0000  0.0000 </r>
        <r>  0.0001  0.0000  0.0000  0.0000  0.0000  0.0000  0.0000  0.0000  0.0000 </r>
        <r>  0.0000  0.0000  0.0000  0.0000  0.0000  0.0000  0.0000  0.0000  0.0000 </r>
        <r>  0.0000  0.0001  0.0000  0.0001  0.0000  0.0000  0.0000  0.0000  0.0000 </r>
        <r>  0.0000  0.0000  0.0000  0.0000  0.0000  0.0000  0.0000  0.0000  0.0000 </r>
        <r>  0.0000  0.0000  0.0000  0.0000  0.0000  0.0000  0.0000  0.0000  0.0000 </r>
        <r>  0.0000  0.0000  0.0000  0.0000  0.0000  0.0000  0.0000  0.0000  0.0000 </r>
        <r>  0.0000  0.0000  0.0000  0.0000  0.0000  0.0000  0.0000  0.0000  0.0000 </r>
        <r>  0.0000  0.0000  0.0000  0.0000  0.0000  0.0000  0.0000  0.0000  0.0000 </r>
        <r>  0.0000  0.0001  0.0000  0.0000  0.0000  0.0000  0.0000  0.0000  0.0000 </r>
        <r>  0.0006  0.0002  0.0002  0.0000  0.0000  0.0000  0.0000  0.0000  0.0000 </r>
        <r>  0.0004  0.0000  0.0000  0.0002  0.0000  0.0000  0.0000  0.0000  0.0000 </r>
        <r>  0.0000  0.0001  0.0000  0.0006  0.0000  0.0000  0.0000  0.0000  0.0000 </r>
        <r>  0.0002  0.0002  0.0002  0.0001  0.0000  0.0000  0.0000  0.0000  0.0000 </r>
        <r>  0.0000  0.0000  0.0000  0.0001  0.0000  0.0000  0.0000  0.0000  0.0000 </r>
        <r>  0.0000  0.0005  0.0000  0.0001  0.0000  0.0000  0.0000  0.0000  0.0000 </r>
       </set>
       <set comment="band 32">
        <r>  0.0000  0.0000  0.0000  0.0000  0.0000  0.0000  0.0000  0.0000  0.0000 </r>
        <r>  0.0000  0.0000  0.0000  0.0000  0.0000  0.0000  0.0000  0.0000  0.0000 </r>
        <r>  0.0000  0.0000  0.0000  0.0000  0.0000  0.0000  0.0000  0.0000  0.0000 </r>
        <r>  0.0001  0.0000  0.0000  0.0000  0.0000  0.0000  0.0000  0.0000  0.0000 </r>
        <r>  0.0000  0.0000  0.0000  0.0000  0.0000  0.0000  0.0000  0.0000  0.0000 </r>
        <r>  0.0000  0.0000  0.0000  0.0000  0.0000  0.0000  0.0000  0.0000  0.0000 </r>
        <r>  0.0000  0.0000  0.0000  0.0000  0.0000  0.0000  0.0000  0.0000  0.0000 </r>
        <r>  0.0006  0.0010  0.0001  0.0001  0.0000  0.0000  0.0000  0.0000  0.0000 </r>
        <r>  0.0006  0.0000  0.0011  0.0004  0.0000  0.0000  0.0000  0.0000  0.0000 </r>
        <r>  0.0001  0.0000  0.0000  0.0000  0.0000  0.0000  0.0000  0.0000  0.0000 </r>
        <r>  0.0000  0.0000  0.0000  0.0000  0.0000  0.0000  0.0000  0.0000  0.0000 </r>
        <r>  0.0000  0.0000  0.0000  0.0000  0.0000  0.0000  0.0000  0.0000  0.0000 </r>
        <r>  0.0000  0.0001  0.0001  0.0000  0.0000  0.0000  0.0000  0.0000  0.0000 </r>
        <r>  0.0001  0.0000  0.0002  0.0000  0.0000  0.0000  0.0000  0.0000  0.0000 </r>
        <r>  0.0000  0.0002  0.0002  0.0000  0.0000  0.0000  0.0000  0.0000  0.0000 </r>
        <r>  0.0010  0.0025  0.0003  0.0001  0.0000  0.0000  0.0000  0.0000  0.0000 </r>
        <r>  0.0009  0.0001  0.0032  0.0011  0.0000  0.0000  0.0000  0.0000  0.0000 </r>
        <r>  0.0000  0.0002  0.0000  0.0004  0.0000  0.0000  0.0000  0.0000  0.0000 </r>
       </set>
       <set comment="band 33">
        <r>  0.0000  0.0000  0.0000  0.0000  0.0000  0.0000  0.0000  0.0000  0.0000 </r>
        <r>  0.0000  0.0000  0.0000  0.0000  0.0000  0.0000  0.0000  0.0000  0.0000 </r>
        <r>  0.0000  0.0001  0.0000  0.0000  0.0000  0.0000  0.0000  0.0000  0.0000 </r>
        <r>  0.0000  0.0000  0.0000  0.0000  0.0000  0.0000  0.0000  0.0000  0.0000 </r>
        <r>  0.0000  0.0000  0.0000  0.0000  0.0000  0.0000  0.0000  0.0000  0.0000 </r>
        <r>  0.0000  0.0000  0.0000  0.0000  0.0000  0.0000  0.0000  0.0000  0.0000 </r>
        <r>  0.0001  0.0000  0.0000  0.0000  0.0000  0.0000  0.0000  0.0000  0.0000 </r>
        <r>  0.0001  0.0002  0.0000  0.0000  0.0000  0.0000  0.0000  0.0000  0.0000 </r>
        <r>  0.0002  0.0000  0.0003  0.0001  0.0000  0.0000  0.0000  0.0000  0.0000 </r>
        <r>  0.0000  0.0000  0.0000  0.0000  0.0000  0.0000  0.0000  0.0000  0.0000 </r>
        <r>  0.0001  0.0000  0.0000  0.0000  0.0000  0.0000  0.0000  0.0000  0.0000 </r>
        <r>  0.0005  0.0011  0.0000  0.0000  0.0000  0.0000  0.0000  0.0000  0.0000 </r>
        <r>  0.0000  0.0003  0.0002  0.0000  0.0000  0.0000  0.0000  0.0000  0.0000 </r>
        <r>  0.0001  0.0003  0.0000  0.0000  0.0000  0.0000  0.0000  0.0000  0.0000 </r>
        <r>  0.0000  0.0000  0.0000  0.0000  0.0000  0.0000  0.0000  0.0000  0.0000 </r>
        <r>  0.0003  0.0001  0.0000  0.0001  0.0000  0.0000  0.0000  0.0000  0.0000 </r>
        <r>  0.0003  0.0001  0.0006  0.0004  0.0000  0.0000  0.0000  0.0000  0.0000 </r>
        <r>  0.0010  0.0025  0.0000  0.0002  0.0000  0.0000  0.0000  0.0000  0.0000 </r>
       </set>
       <set comment="band 34">
        <r>  0.0000  0.0000  0.0000  0.0000  0.0000  0.0000  0.0000  0.0000  0.0000 </r>
        <r>  0.0000  0.0000  0.0000  0.0000  0.0000  0.0000  0.0000  0.0000  0.0000 </r>
        <r>  0.0000  0.0001  0.0000  0.0000  0.0000  0.0000  0.0000  0.0000  0.0000 </r>
        <r>  0.0000  0.0000  0.0000  0.0000  0.0000  0.0000  0.0000  0.0000  0.0000 </r>
        <r>  0.0001  0.0000  0.0000  0.0000  0.0000  0.0000  0.0000  0.0000  0.0000 </r>
        <r>  0.0003  0.0005  0.0000  0.0006  0.0000  0.0000  0.0000  0.0000  0.0000 </r>
        <r>  0.0000  0.0000  0.0000  0.0000  0.0000  0.0000  0.0000  0.0000  0.0000 </r>
        <r>  0.0002  0.0002  0.0000  0.0000  0.0000  0.0000  0.0000  0.0000  0.0000 </r>
        <r>  0.0000  0.0000  0.0000  0.0000  0.0000  0.0000  0.0000  0.0000  0.0000 </r>
        <r>  0.0001  0.0000  0.0000  0.0000  0.0000  0.0000  0.0000  0.0000  0.0000 </r>
        <r>  0.0000  0.0000  0.0000  0.0000  0.0000  0.0000  0.0000  0.0000  0.0000 </r>
        <r>  0.0003  0.0005  0.0000  0.0000  0.0000  0.0000  0.0000  0.0000  0.0000 </r>
        <r>  0.0000  0.0001  0.0000  0.0004  0.0000  0.0000  0.0000  0.0000  0.0000 </r>
        <r>  0.0000  0.0001  0.0000  0.0005  0.0000  0.0000  0.0000  0.0000  0.0000 </r>
        <r>  0.0009  0.0020  0.0000  0.0008  0.0000  0.0000  0.0000  0.0000  0.0000 </r>
        <r>  0.0004  0.0004  0.0000  0.0002  0.0000  0.0000  0.0000  0.0000  0.0000 </r>
        <r>  0.0001  0.0000  0.0000  0.0003  0.0000  0.0000  0.0000  0.0000  0.0000 </r>
        <r>  0.0007  0.0009  0.0000  0.0001  0.0000  0.0000  0.0000  0.0000  0.0000 </r>
       </set>
       <set comment="band 35">
        <r>  0.0000  0.0000  0.0000  0.0000  0.0000  0.0000  0.0000  0.0000  0.0000 </r>
        <r>  0.0000  0.0000  0.0000  0.0000  0.0000  0.0000  0.0000  0.0000  0.0000 </r>
        <r>  0.0003  0.0003  0.0000  0.0001  0.0000  0.0000  0.0000  0.0000  0.0000 </r>
        <r>  0.0002  0.0002  0.0001  0.0000  0.0000  0.0000  0.0000  0.0000  0.0000 </r>
        <r>  0.0001  0.0000  0.0001  0.0001  0.0000  0.0000  0.0000  0.0000  0.0000 </r>
        <r>  0.0001  0.0001  0.0000  0.0001  0.0000  0.0000  0.0000  0.0000  0.0000 </r>
        <r>  0.0001  0.0000  0.0000  0.0000  0.0000  0.0000  0.0000  0.0000  0.0000 </r>
        <r>  0.0001  0.0000  0.0000  0.0000  0.0000  0.0000  0.0000  0.0000  0.0000 </r>
        <r>  0.0001  0.0000  0.0002  0.0001  0.0000  0.0000  0.0000  0.0000  0.0000 </r>
        <r>  0.0000  0.0001  0.0000  0.0000  0.0000  0.0000  0.0000  0.0000  0.0000 </r>
        <r>  0.0001  0.0000  0.0000  0.0000  0.0000  0.0000  0.0000  0.0000  0.0000 </r>
        <r>  0.0001  0.0000  0.0000  0.0000  0.0000  0.0000  0.0000  0.0000  0.0000 </r>
        <r>  0.0001  0.0001  0.0004  0.0000  0.0000  0.0000  0.0000  0.0000  0.0000 </r>
        <r>  0.0015  0.0000  0.0002  0.0003  0.0000  0.0000  0.0000  0.0000  0.0000 </r>
        <r>  0.0005  0.0007  0.0000  0.0001  0.0000  0.0000  0.0000  0.0000  0.0000 </r>
        <r>  0.0007  0.0000  0.0004  0.0000  0.0000  0.0000  0.0000  0.0000  0.0000 </r>
        <r>  0.0004  0.0000  0.0009  0.0002  0.0000  0.0000  0.0000  0.0000  0.0000 </r>
        <r>  0.0006  0.0001  0.0001  0.0000  0.0000  0.0000  0.0000  0.0000  0.0000 </r>
       </set>
       <set comment="band 36">
        <r>  0.0001  0.0003  0.0000  0.0001  0.0000  0.0000  0.0000  0.0000  0.0000 </r>
        <r>  0.0002  0.0000  0.0000  0.0000  0.0000  0.0000  0.0000  0.0000  0.0000 </r>
        <r>  0.0003  0.0003  0.0000  0.0000  0.0000  0.0000  0.0000  0.0000  0.0000 </r>
        <r>  0.0004  0.0001  0.0000  0.0000  0.0000  0.0000  0.0000  0.0000  0.0000 </r>
        <r>  0.0000  0.0000  0.0000  0.0000  0.0000  0.0000  0.0000  0.0000  0.0000 </r>
        <r>  0.0000  0.0000  0.0000  0.0000  0.0000  0.0000  0.0000  0.0000  0.0000 </r>
        <r>  0.0002  0.0000  0.0000  0.0000  0.0000  0.0000  0.0000  0.0000  0.0000 </r>
        <r>  0.0000  0.0000  0.0000  0.0000  0.0000  0.0000  0.0000  0.0000  0.0000 </r>
        <r>  0.0002  0.0000  0.0001  0.0000  0.0000  0.0000  0.0000  0.0000  0.0000 </r>
        <r>  0.0000  0.0000  0.0000  0.0000  0.0000  0.0000  0.0000  0.0000  0.0000 </r>
        <r>  0.0001  0.0000  0.0000  0.0000  0.0000  0.0000  0.0000  0.0000  0.0000 </r>
        <r>  0.0000  0.0000  0.0000  0.0000  0.0000  0.0000  0.0000  0.0000  0.0000 </r>
        <r>  0.0012  0.0007  0.0005  0.0000  0.0000  0.0000  0.0000  0.0000  0.0000 </r>
        <r>  0.0021  0.0000  0.0004  0.0003  0.0000  0.0000  0.0000  0.0000  0.0000 </r>
        <r>  0.0000  0.0005  0.0021  0.0000  0.0000  0.0000  0.0000  0.0000  0.0000 </r>
        <r>  0.0001  0.0005  0.0024  0.0000  0.0000  0.0000  0.0000  0.0000  0.0000 </r>
        <r>  0.0004  0.0003  0.0000  0.0003  0.0000  0.0000  0.0000  0.0000  0.0000 </r>
        <r>  0.0000  0.0000  0.0019  0.0005  0.0000  0.0000  0.0000  0.0000  0.0000 </r>
       </set>
      </set>
     </set>
    </set>
   </array>
  </projected>
 </calculation>
 <structure name="finalpos" >
  <crystal>
   <varray name="basis" >
    <v>      20.00000000       0.00000000       0.00000000 </v>
    <v>       0.00000000      20.00000000       0.00000000 </v>
    <v>       0.00000000       0.00000000      20.00000000 </v>
   </varray>
   <i name="volume">   8000.00000000 </i>
   <varray name="rec_basis" >
    <v>       0.05000000       0.00000000       0.00000000 </v>
    <v>       0.00000000       0.05000000       0.00000000 </v>
    <v>       0.00000000       0.00000000       0.05000000 </v>
   </varray>
  </crystal>
  <varray name="positions" >
   <v>       0.51568322       0.48423117       0.42426477 </v>
   <v>       0.58249050       0.51859334       0.44536113 </v>
   <v>       0.51030648       0.51481623       0.57655481 </v>
   <v>       0.50820197       0.44216098       0.55102519 </v>
   <v>       0.60732886       0.48689159       0.54283482 </v>
   <v>       0.67657777       0.46952515       0.50843798 </v>
   <v>       0.41689696       0.44174577       0.47943834 </v>
   <v>       0.44772549       0.37259916       0.45527827 </v>
   <v>       0.33481007       0.49683442       0.53871230 </v>
   <v>       0.39253709       0.53926366       0.50603488 </v>
   <v>       0.49623305       0.56798920       0.47684356 </v>
   <v>       0.46837095       0.63195920       0.51669403 </v>
   <v>       0.53932667       0.52737164       0.42192884 </v>
   <v>       0.53165925       0.47104088       0.58342033 </v>
   <v>       0.64137527       0.50294894       0.50975020 </v>
   <v>       0.45980651       0.41683209       0.47130327 </v>
   <v>       0.35967648       0.50252909       0.49733577 </v>
   <v>       0.46683393       0.58341133       0.51591139 </v>
  </varray>
 </structure>
</modeling>
