VaspCalc                                
           1
    20.000000    0.000000    0.000000
     0.000000   20.000000    0.000000
     0.000000    0.000000   20.000000
   H    O 
  12   6
Direct configuration=     1
   0.51569616  0.48352365  0.42433942
   0.58224163  0.51852524  0.44529586
   0.51001356  0.51457228  0.57720330
   0.50819358  0.44197130  0.55146302
   0.60751962  0.48735010  0.54286836
   0.67718200  0.47076168  0.50898210
   0.41679604  0.44167314  0.47914081
   0.44737445  0.37230111  0.45528206
   0.33513582  0.49665029  0.53851060
   0.39246169  0.53949700  0.50572874
   0.49613074  0.56782355  0.47666844
   0.46872907  0.63211612  0.51627389
   0.53900991  0.52684579  0.42183980
   0.53169915  0.47092020  0.58376067
   0.64132328  0.50349016  0.50968156
   0.45959479  0.41649546  0.47131345
   0.35978428  0.50264648  0.49705112
   0.46695473  0.58358027  0.51572666
Direct configuration=     2
   0.51569079  0.48356093  0.42434968
   0.58224243  0.51851381  0.44526435
   0.51002512  0.51458025  0.57718227
   0.50820031  0.44198503  0.55145737
   0.60748340  0.48730491  0.54291770
   0.67715943  0.47073908  0.50897529
   0.41679040  0.44169065  0.47914256
   0.44737577  0.37230534  0.45528187
   0.33513261  0.49666800  0.53851997
   0.39251321  0.53953152  0.50575729
   0.49614366  0.56781628  0.47665596
   0.46873260  0.63213384  0.51627486
   0.53904212  0.52684264  0.42184795
   0.53169311  0.47091711  0.58374322
   0.64135544  0.50351688  0.50964737
   0.45962647  0.41648549  0.47131769
   0.35973086  0.50259007  0.49703536
   0.46690278  0.58356200  0.51575908
Direct configuration=     3
   0.51569424  0.48353697  0.42434309
   0.58224192  0.51852116  0.44528460
   0.51001769  0.51457513  0.57719579
   0.50819599  0.44197621  0.55146100
   0.60750669  0.48733396  0.54288599
   0.67717394  0.47075361  0.50897967
   0.41679403  0.44167939  0.47914144
   0.44737492  0.37230262  0.45528200
   0.33513467  0.49665662  0.53851395
   0.39248009  0.53950933  0.50573894
   0.49613535  0.56782096  0.47666398
   0.46873033  0.63212245  0.51627424
   0.53902142  0.52684466  0.42184271
   0.53169699  0.47091909  0.58375444
   0.64133477  0.50349971  0.50966935
   0.45960611  0.41649189  0.47131497
   0.35976520  0.50262633  0.49704549
   0.46693617  0.58357375  0.51573824
Direct configuration=     4
   0.51568387  0.48356698  0.42435488
   0.58226567  0.51850358  0.44526257
   0.51003131  0.51458236  0.57717269
   0.50819587  0.44198131  0.55144390
   0.60750676  0.48730889  0.54289526
   0.67715696  0.47072424  0.50896901
   0.41680554  0.44168812  0.47914138
   0.44737666  0.37230398  0.45528056
   0.33512291  0.49667080  0.53853358
   0.39249006  0.53949216  0.50575321
   0.49613438  0.56781575  0.47667048
   0.46873023  0.63211653  0.51627743
   0.53903441  0.52685972  0.42184120
   0.53170023  0.47092750  0.58374476
   0.64131742  0.50350663  0.50968203
   0.45962131  0.41649734  0.47132382
   0.35976803  0.50262678  0.49703481
   0.46689891  0.58357118  0.51574831
Direct configuration=     5
   0.51568030  0.48357730  0.42435894
   0.58227383  0.51849753  0.44525499
   0.51003600  0.51458485  0.57716474
   0.50819584  0.44198307  0.55143802
   0.60750679  0.48730026  0.54289845
   0.67715112  0.47071414  0.50896534
   0.41680950  0.44169112  0.47914135
   0.44737726  0.37230444  0.45528006
   0.33511886  0.49667568  0.53854033
   0.39249349  0.53948625  0.50575812
   0.49613404  0.56781395  0.47667271
   0.46873019  0.63211449  0.51627853
   0.53903887  0.52686490  0.42184068
   0.53170134  0.47093039  0.58374143
   0.64131145  0.50350902  0.50968640
   0.45962653  0.41649921  0.47132686
   0.35976901  0.50262694  0.49703114
   0.46688609  0.58357029  0.51575177
Direct configuration=     6
   0.51567702  0.48358583  0.42436232
   0.58228068  0.51849257  0.44524867
   0.51003981  0.51458772  0.57715777
   0.50819632  0.44198516  0.55143358
   0.60750645  0.48729340  0.54290090
   0.67714290  0.47070859  0.50896187
   0.41681352  0.44169342  0.47914137
   0.44737842  0.37230657  0.45528024
   0.33511803  0.49668029  0.53854119
   0.39249629  0.53948109  0.50576188
   0.49613198  0.56781298  0.47667706
   0.46872981  0.63211287  0.51627981
   0.53904283  0.52686989  0.42184049
   0.53170197  0.47093153  0.58373794
   0.64130995  0.50350708  0.50969051
   0.45962976  0.41649955  0.47132889
   0.35976718  0.50262675  0.49703348
   0.46687758  0.58356857  0.51575190
Direct configuration=     7
   0.51566720  0.48361142  0.42437244
   0.58230122  0.51847769  0.44522971
   0.51005125  0.51459632  0.57713685
   0.50819776  0.44199142  0.55142027
   0.60750544  0.48727283  0.54290826
   0.67711824  0.47069194  0.50895146
   0.41682561  0.44170032  0.47914142
   0.44738190  0.37231296  0.45528079
   0.33511555  0.49669412  0.53854375
   0.39250468  0.53946558  0.50577314
   0.49612579  0.56781006  0.47669009
   0.46872865  0.63210800  0.51628364
   0.53905472  0.52688485  0.42183993
   0.53170388  0.47093492  0.58372748
   0.64130546  0.50350126  0.50970286
   0.45963943  0.41650056  0.47133497
   0.35976168  0.50262618  0.49704050
   0.46685206  0.58356339  0.51575229
Direct configuration=     8
   0.51564756  0.48366260  0.42439270
   0.58234231  0.51844792  0.44519178
   0.51007411  0.51461354  0.57709502
   0.50820065  0.44200396  0.55139364
   0.60750341  0.48723168  0.54292299
   0.67706891  0.47065863  0.50893063
   0.41684979  0.44171414  0.47914152
   0.44738887  0.37232574  0.45528189
   0.33511057  0.49672177  0.53854887
   0.39252147  0.53943458  0.50579568
   0.49611342  0.56780422  0.47671616
   0.46872634  0.63209827  0.51629130
   0.53907849  0.52691477  0.42183881
   0.53170768  0.47094172  0.58370656
   0.64129647  0.50348962  0.50972756
   0.45965877  0.41650259  0.47134714
   0.35975068  0.50262505  0.49705455
   0.46680101  0.58355303  0.51575308
Direct configuration=     9
   0.51560829  0.48376497  0.42443321
   0.58242448  0.51838838  0.44511593
   0.51011985  0.51464798  0.57701135
   0.50820644  0.44202903  0.55134040
   0.60749935  0.48714939  0.54295244
   0.67697025  0.47059202  0.50888896
   0.41689814  0.44174176  0.47914173
   0.44740279  0.37235131  0.45528408
   0.33510062  0.49677707  0.53855911
   0.39255505  0.53937257  0.50584076
   0.49608867  0.56779253  0.47676830
   0.46872173  0.63207880  0.51630662
   0.53912604  0.52697461  0.42183656
   0.53171530  0.47095531  0.58366471
   0.64127849  0.50346634  0.50977695
   0.45969745  0.41650666  0.47137148
   0.35972868  0.50262278  0.49708263
   0.46669890  0.58353231  0.51575465
Direct configuration=    10
   0.51562711  0.48371591  0.42441380
   0.58238510  0.51841692  0.44515228
   0.51009793  0.51463148  0.57705145
   0.50820367  0.44201701  0.55136592
   0.60750130  0.48718883  0.54293832
   0.67701753  0.47062395  0.50890893
   0.41687496  0.44172852  0.47914163
   0.44739612  0.37233906  0.45528303
   0.33510539  0.49675057  0.53855420
   0.39253896  0.53940229  0.50581916
   0.49610053  0.56779813  0.47674331
   0.46872394  0.63208813  0.51629928
   0.53910325  0.52694593  0.42183763
   0.53171165  0.47094880  0.58368477
   0.64128711  0.50347750  0.50975328
   0.45967891  0.41650471  0.47135982
   0.35973922  0.50262387  0.49706917
   0.46674784  0.58354224  0.51575390
Direct configuration=    11
   0.51562329  0.48373346  0.42441691
   0.58238828  0.51841382  0.44514167
   0.51010649  0.51463564  0.57703915
   0.50820654  0.44202207  0.55136014
   0.60749296  0.48718070  0.54294335
   0.67701034  0.47060899  0.50889889
   0.41688356  0.44172982  0.47914344
   0.44740009  0.37234485  0.45528385
   0.33509995  0.49675544  0.53855759
   0.39254404  0.53939785  0.50582289
   0.49608998  0.56779884  0.47676126
   0.46871895  0.63208195  0.51630500
   0.53911459  0.52694996  0.42184348
   0.53170815  0.47094992  0.58367586
   0.64128577  0.50347093  0.50975925
   0.45967982  0.41650871  0.47136202
   0.35973814  0.50262163  0.49707471
   0.46674958  0.58353925  0.51574041
Direct configuration=    12
   0.51561927  0.48375185  0.42442018
   0.58239162  0.51841058  0.44513056
   0.51011546  0.51464000  0.57702627
   0.50820955  0.44202738  0.55135408
   0.60748422  0.48717217  0.54294861
   0.67700279  0.47059331  0.50888838
   0.41689258  0.44173117  0.47914533
   0.44740426  0.37235093  0.45528471
   0.33509425  0.49676055  0.53856114
   0.39254937  0.53939321  0.50582680
   0.49607893  0.56779957  0.47678007
   0.46871372  0.63207548  0.51631100
   0.53912648  0.52695419  0.42184961
   0.53170448  0.47095109  0.58366652
   0.64128437  0.50346405  0.50976550
   0.45968077  0.41651290  0.47136432
   0.35973700  0.50261929  0.49708052
   0.46675141  0.58353612  0.51572627
Direct configuration=    13
   0.51561781  0.48376140  0.42441947
   0.58239686  0.51841121  0.44513105
   0.51012153  0.51464353  0.57701739
   0.50820871  0.44202711  0.55134597
   0.60747476  0.48717108  0.54294942
   0.67700249  0.47057925  0.50887869
   0.41689294  0.44173220  0.47914956
   0.44740797  0.37235476  0.45528490
   0.33508642  0.49676077  0.53856603
   0.39255052  0.53939268  0.50582632
   0.49608035  0.56779853  0.47678263
   0.46870729  0.63207154  0.51631690
   0.53912801  0.52695880  0.42185009
   0.53170370  0.47095420  0.58366500
   0.64128463  0.50345393  0.50977057
   0.45968433  0.41651771  0.47136409
   0.35974034  0.50261842  0.49708547
   0.46675185  0.58353671  0.51572634
Direct configuration=    14
   0.51561341  0.48379007  0.42441736
   0.58241260  0.51841308  0.44513252
   0.51013975  0.51465412  0.57699073
   0.50820620  0.44202630  0.55132163
   0.60744637  0.48716779  0.54295184
   0.67700156  0.47053707  0.50884964
   0.41689404  0.44173526  0.47916222
   0.44741910  0.37236625  0.45528548
   0.33506292  0.49676142  0.53858068
   0.39255399  0.53939111  0.50582490
   0.49608461  0.56779542  0.47679030
   0.46868802  0.63205971  0.51633458
   0.53913261  0.52697266  0.42185154
   0.53170136  0.47096354  0.58366044
   0.64128543  0.50342359  0.50978576
   0.45969502  0.41653215  0.47136338
   0.35975035  0.50261581  0.49710032
   0.46675317  0.58353848  0.51572656
Direct configuration=    15
   0.51561214  0.48379388  0.42441655
   0.58241456  0.51841406  0.44513326
   0.51014275  0.51465719  0.57698528
   0.50820678  0.44202762  0.55131831
   0.60744112  0.48716682  0.54295200
   0.67700009  0.47052882  0.50884418
   0.41689401  0.44173575  0.47916516
   0.44742173  0.37236884  0.45528567
   0.33505977  0.49676186  0.53858107
   0.39255479  0.53939183  0.50582494
   0.49608705  0.56779504  0.47678997
   0.46868411  0.63206021  0.51633815
   0.53913492  0.52697693  0.42185211
   0.53170014  0.47096300  0.58365810
   0.64128677  0.50341679  0.50978792
   0.45969676  0.41653514  0.47136297
   0.35975032  0.50261389  0.49710560
   0.46675270  0.58353617  0.51572862
Direct configuration=    16
   0.51560834  0.48380530  0.42441411
   0.58242046  0.51841697  0.44513549
   0.51015172  0.51466640  0.57696891
   0.50820851  0.44203156  0.55130834
   0.60742538  0.48716391  0.54295250
   0.67699567  0.47050408  0.50882780
   0.41689390  0.44173721  0.47917400
   0.44742961  0.37237659  0.45528625
   0.33505033  0.49676318  0.53858221
   0.39255720  0.53939402  0.50582508
   0.49609437  0.56779391  0.47678898
   0.46867239  0.63206172  0.51634886
   0.53914184  0.52698972  0.42185383
   0.53169648  0.47096139  0.58365106
   0.64129080  0.50339639  0.50979442
   0.45970200  0.41654411  0.47136177
   0.35975021  0.50260811  0.49712146
   0.46675130  0.58352924  0.51573479
Direct configuration=    17
   0.51560072  0.48382815  0.42440924
   0.58243225  0.51842281  0.44513995
   0.51016967  0.51468483  0.57693618
   0.50821196  0.44203945  0.55128840
   0.60739389  0.48715809  0.54295349
   0.67698684  0.47045459  0.50879505
   0.41689369  0.44174014  0.47919168
   0.44744537  0.37239210  0.45528741
   0.33503144  0.49676582  0.53858451
   0.39256202  0.53939839  0.50582535
   0.49610902  0.56779166  0.47678699
   0.46864894  0.63206474  0.51637027
   0.53915569  0.52701532  0.42185726
   0.53168916  0.47095816  0.58363700
   0.64129887  0.50335559  0.50980743
   0.45971248  0.41656206  0.47135936
   0.35975000  0.50259655  0.49715318
   0.46674850  0.58351539  0.51574714
Direct configuration=    18
   0.51560040  0.48384037  0.42440583
   0.58243440  0.51842684  0.44514326
   0.51017802  0.51468934  0.57692181
   0.50821327  0.44204386  0.55127968
   0.60738606  0.48715155  0.54295170
   0.67697977  0.47042815  0.50878363
   0.41689481  0.44174052  0.47920080
   0.44745387  0.37239954  0.45528793
   0.33502164  0.49676768  0.53859036
   0.39256047  0.53939870  0.50582805
   0.49611632  0.56779362  0.47678598
   0.46863798  0.63206122  0.51637975
   0.53916179  0.52702434  0.42186083
   0.53168506  0.47096043  0.58362985
   0.64129934  0.50334239  0.50980938
   0.45971384  0.41657156  0.47135762
   0.35975409  0.50259178  0.49716032
   0.46674938  0.58351195  0.51575309
Direct configuration=    19
   0.51559941  0.48387702  0.42439562
   0.58244083  0.51843896  0.44515319
   0.51020305  0.51470290  0.57687870
   0.50821719  0.44205709  0.55125351
   0.60736258  0.48713192  0.54294632
   0.67695859  0.47034885  0.50874935
   0.41689817  0.44174167  0.47922818
   0.44747937  0.37242186  0.45528949
   0.33499226  0.49677325  0.53860792
   0.39255581  0.53939964  0.50583616
   0.49613821  0.56779950  0.47678293
   0.46860511  0.63205063  0.51640821
   0.53918009  0.52705141  0.42187155
   0.53167278  0.47096723  0.58360840
   0.64130076  0.50330278  0.50981524
   0.45971792  0.41660005  0.47135242
   0.35976636  0.50257748  0.49718174
   0.46675202  0.58350162  0.51577094
Direct configuration=    20
   0.51560389  0.48389802  0.42438919
   0.58244527  0.51844530  0.44516328
   0.51021189  0.51470984  0.57685663
   0.50821490  0.44206154  0.55123627
   0.60736236  0.48711425  0.54294043
   0.67693433  0.47030869  0.50873846
   0.41689676  0.44174373  0.47924413
   0.44749366  0.37243257  0.45528972
   0.33498381  0.49677957  0.53861154
   0.39254955  0.53939809  0.50584591
   0.49614410  0.56781008  0.47678921
   0.46858864  0.63203976  0.51642222
   0.53918260  0.52706429  0.42187687
   0.53167312  0.47097420  0.58360224
   0.64130393  0.50328625  0.50981060
   0.45972143  0.41661393  0.47134826
   0.35976793  0.50256789  0.49719275
   0.46676234  0.58349584  0.51577216
Direct configuration=    21
   0.51561730  0.48396103  0.42436990
   0.58245857  0.51846431  0.44519355
   0.51023839  0.51473068  0.57679043
   0.50820803  0.44207488  0.55118456
   0.60736171  0.48706126  0.54292277
   0.67686156  0.47018822  0.50870576
   0.41689255  0.44174992  0.47929199
   0.44753655  0.37246472  0.45529043
   0.33495845  0.49679851  0.53862241
   0.39253076  0.53939341  0.50587514
   0.49616179  0.56784184  0.47680806
   0.46853924  0.63200713  0.51646422
   0.53919014  0.52710293  0.42189283
   0.53167415  0.47099512  0.58358375
   0.64131343  0.50323665  0.50979666
   0.45973196  0.41665557  0.47133577
   0.35977263  0.50253914  0.49722579
   0.46679330  0.58347852  0.51577585
Direct configuration=    22
   0.51561878  0.48397120  0.42436524
   0.58245923  0.51846932  0.44520056
   0.51024298  0.51473745  0.57677468
   0.50820870  0.44208147  0.55117591
   0.60736448  0.48704785  0.54291713
   0.67684374  0.47015711  0.50869864
   0.41689128  0.44175134  0.47930352
   0.44754674  0.37247135  0.45529017
   0.33495253  0.49680328  0.53862577
   0.39252541  0.53939060  0.50588317
   0.49616765  0.56785017  0.47681015
   0.46852816  0.63200274  0.51647404
   0.53919700  0.52711710  0.42189720
   0.53167340  0.47099488  0.58357572
   0.64131323  0.50322671  0.50979278
   0.45973496  0.41666636  0.47133321
   0.35977391  0.50253345  0.49723204
   0.46679835  0.58347146  0.51577994
Direct configuration=    23
   0.51562321  0.48400169  0.42435127
   0.58246119  0.51848435  0.44522158
   0.51025673  0.51475775  0.57672742
   0.50821070  0.44210122  0.55114996
   0.60737278  0.48700763  0.54290021
   0.67679027  0.47006381  0.50867728
   0.41688747  0.44175562  0.47933811
   0.44757731  0.37249126  0.45528940
   0.33493476  0.49681756  0.53863587
   0.39250935  0.53938217  0.50590725
   0.49618524  0.56787514  0.47681642
   0.46849493  0.63198957  0.51650347
   0.53921757  0.52715959  0.42191030
   0.53167114  0.47099417  0.58355163
   0.64131263  0.50319692  0.50978115
   0.45974398  0.41669873  0.47132555
   0.35977774  0.50251637  0.49725080
   0.46681351  0.58345028  0.51579219
Direct configuration=    24
   0.51563208  0.48406267  0.42432332
   0.58246512  0.51851441  0.44526362
   0.51028424  0.51479835  0.57663291
   0.50821471  0.44214072  0.55109805
   0.60738940  0.48692719  0.54286637
   0.67668333  0.46987720  0.50863456
   0.41687984  0.44176419  0.47940730
   0.44763846  0.37253109  0.45528787
   0.33489923  0.49684613  0.53865606
   0.39247723  0.53936531  0.50595540
   0.49622041  0.56792509  0.47682896
   0.46842846  0.63196322  0.51656235
   0.53925871  0.52724457  0.42193651
   0.53166663  0.47099274  0.58350344
   0.64131143  0.50313733  0.50975789
   0.45976201  0.41676347  0.47131022
   0.35978540  0.50248223  0.49728833
   0.46684383  0.58340792  0.51581671
Direct configuration=    25
   0.51562702  0.48402785  0.42433928
   0.58246288  0.51849725  0.44523962
   0.51026853  0.51477517  0.57668687
   0.50821242  0.44211817  0.55112769
   0.60737991  0.48697312  0.54288570
   0.67674439  0.46998375  0.50865895
   0.41688419  0.44175930  0.47936779
   0.44760355  0.37250835  0.45528875
   0.33491952  0.49682982  0.53864453
   0.39249557  0.53937494  0.50592791
   0.49620033  0.56789657  0.47682180
   0.46846641  0.63197827  0.51652873
   0.53923522  0.52719605  0.42192155
   0.53166920  0.47099355  0.58353095
   0.64131212  0.50317136  0.50977117
   0.45975172  0.41672651  0.47131897
   0.35978103  0.50250172  0.49726690
   0.46682651  0.58343210  0.51580271
Direct configuration=    26
   0.51563258  0.48404876  0.42433124
   0.58246538  0.51850573  0.44525306
   0.51027845  0.51477849  0.57666391
   0.50821279  0.44212762  0.55111364
   0.60738278  0.48695271  0.54287721
   0.67671476  0.46993329  0.50864522
   0.41688397  0.44176016  0.47938493
   0.44762040  0.37252079  0.45528873
   0.33490893  0.49683622  0.53865136
   0.39249016  0.53936876  0.50594149
   0.49621605  0.56790804  0.47681573
   0.46845028  0.63197127  0.51654470
   0.53924338  0.52721574  0.42192561
   0.53166505  0.47100122  0.58351687
   0.64131556  0.50315201  0.50976443
   0.45975551  0.41674244  0.47131462
   0.35977939  0.50249460  0.49727545
   0.46682508  0.58342598  0.51582167
Direct configuration=    27
   0.51564032  0.48407785  0.42432006
   0.58246886  0.51851753  0.44527176
   0.51029224  0.51478311  0.57663197
   0.50821331  0.44214076  0.55109410
   0.60738678  0.48692432  0.54286541
   0.67667355  0.46986310  0.50862612
   0.41688366  0.44176136  0.47940876
   0.44764383  0.37253811  0.45528871
   0.33489420  0.49684513  0.53866087
   0.39248264  0.53936017  0.50596039
   0.49623793  0.56792400  0.47680728
   0.46842784  0.63196154  0.51656690
   0.53925473  0.52724313  0.42193127
   0.53165926  0.47101188  0.58349729
   0.64132035  0.50312510  0.50975504
   0.45976080  0.41676459  0.47130856
   0.35977711  0.50248470  0.49728733
   0.46682309  0.58341745  0.51584804
Direct configuration=    28
   0.51564504  0.48409095  0.42431668
   0.58247177  0.51852150  0.44527857
   0.51029363  0.51478593  0.57662551
   0.50821051  0.44214005  0.55108634
   0.60738278  0.48692123  0.54286367
   0.67666707  0.46984253  0.50861571
   0.41688490  0.44176028  0.47941225
   0.44764945  0.37254308  0.45528851
   0.33488939  0.49684507  0.53866301
   0.39248658  0.53935658  0.50596498
   0.49623961  0.56792815  0.47680818
   0.46842350  0.63196213  0.51657431
   0.53925447  0.52724720  0.42193034
   0.53166163  0.47101570  0.58349567
   0.64132403  0.50311430  0.50975420
   0.45976287  0.41676908  0.47130749
   0.35976981  0.50248483  0.49729147
   0.46682347  0.58341526  0.51585297
Direct configuration=    29
   0.51565340  0.48411416  0.42431068
   0.58247693  0.51852855  0.44529064
   0.51029609  0.51479092  0.57661406
   0.50820555  0.44213878  0.55107259
   0.60737570  0.48691575  0.54286061
   0.67665561  0.46980609  0.50859727
   0.41688708  0.44175836  0.47941844
   0.44765940  0.37255189  0.45528816
   0.33488088  0.49684496  0.53866680
   0.39249356  0.53935023  0.50597311
   0.49624257  0.56793550  0.47680978
   0.46841582  0.63196318  0.51658744
   0.53925402  0.52725439  0.42192868
   0.53166584  0.47102247  0.58349280
   0.64133054  0.50309516  0.50975271
   0.45976654  0.41677702  0.47130559
   0.35975687  0.50248505  0.49729881
   0.46682414  0.58341138  0.51586169
Direct configuration=    30
   0.51565486  0.48411978  0.42430861
   0.58247730  0.51853156  0.44529418
   0.51029635  0.51479322  0.57661068
   0.50820490  0.44213941  0.55106959
   0.60737250  0.48691490  0.54285962
   0.67665273  0.46979253  0.50858955
   0.41688784  0.44175751  0.47941984
   0.44766254  0.37255432  0.45528776
   0.33487699  0.49684423  0.53866935
   0.39249624  0.53934648  0.50597571
   0.49624215  0.56793806  0.47681154
   0.46841345  0.63196309  0.51659248
   0.53925736  0.52725980  0.42192853
   0.53166642  0.47102284  0.58349004
   0.64133273  0.50308789  0.50975270
   0.45976846  0.41678002  0.47130541
   0.35975273  0.50248709  0.49730056
   0.46682499  0.58341111  0.51586373
Direct configuration=    31
   0.51565925  0.48413665  0.42430239
   0.58247840  0.51854058  0.44530478
   0.51029713  0.51480010  0.57660054
   0.50820295  0.44214130  0.55106057
   0.60736289  0.48691234  0.54285667
   0.67664411  0.46975186  0.50856636
   0.41689009  0.44175496  0.47942405
   0.44767197  0.37256162  0.45528655
   0.33486531  0.49684204  0.53867700
   0.39250426  0.53933524  0.50598349
   0.49624088  0.56794574  0.47681681
   0.46840633  0.63196284  0.51660759
   0.53926740  0.52727602  0.42192807
   0.53166816  0.47102394  0.58348178
   0.64133932  0.50306608  0.50975268
   0.45977421  0.41678901  0.47130488
   0.35974032  0.50249320  0.49730579
   0.46682753  0.58341031  0.51586985
Direct configuration=    32
   0.51566801  0.48417038  0.42428995
   0.58248061  0.51855864  0.44532598
   0.51029869  0.51481387  0.57658027
   0.50819906  0.44214506  0.55104255
   0.60734367  0.48690722  0.54285077
   0.67662687  0.46967051  0.50852000
   0.41689460  0.44174987  0.47943245
   0.44769083  0.37257622  0.45528414
   0.33484195  0.49683767  0.53869230
   0.39252030  0.53931277  0.50599905
   0.49623833  0.56796110  0.47682734
   0.46839211  0.63196233  0.51663782
   0.53928748  0.52730846  0.42192715
   0.53167165  0.47102615  0.58346526
   0.64135251  0.50302248  0.50975264
   0.45978573  0.41680699  0.47130382
   0.35971550  0.50250542  0.49731627
   0.46683260  0.58340870  0.51588210
Direct configuration=    33
   0.51568555  0.48423784  0.42426507
   0.58248503  0.51859475  0.44536839
   0.51030182  0.51484141  0.57653973
   0.50819128  0.44215260  0.55100649
   0.60730524  0.48689698  0.54283896
   0.67659238  0.46950781  0.50842727
   0.41690362  0.44173968  0.47944925
   0.44772855  0.37260542  0.45527932
   0.33479523  0.49682893  0.53872290
   0.39255239  0.53926782  0.50603018
   0.49623324  0.56799183  0.47684841
   0.46836365  0.63196131  0.51669827
   0.53932765  0.52737333  0.42192532
   0.53167863  0.47103058  0.58343222
   0.64137887  0.50293526  0.50975256
   0.45980876  0.41684295  0.47130169
   0.35966587  0.50252986  0.49733723
   0.46684276  0.58340549  0.51590661
Direct configuration=    34
   0.51567563  0.48419967  0.42427915
   0.58248253  0.51857432  0.44534440
   0.51030005  0.51482583  0.57656267
   0.50819568  0.44214834  0.55102689
   0.60732699  0.48690277  0.54284564
   0.67661189  0.46959985  0.50847973
   0.41689852  0.44174545  0.47943974
   0.44770721  0.37258890  0.45528205
   0.33482166  0.49683388  0.53870559
   0.39253424  0.53929325  0.50601257
   0.49623612  0.56797445  0.47683649
   0.46837975  0.63196189  0.51666407
   0.53930492  0.52733663  0.42192635
   0.53167468  0.47102808  0.58345092
   0.64136396  0.50298460  0.50975260
   0.45979573  0.41682261  0.47130289
   0.35969395  0.50251603  0.49732537
   0.46683701  0.58340730  0.51589274
Direct configuration=    35
   0.51567822  0.48421424  0.42427174
   0.58248434  0.51858489  0.44535388
   0.51030564  0.51481964  0.57655699
   0.50820026  0.44215683  0.55102682
   0.60732393  0.48689835  0.54284026
   0.67659576  0.46955813  0.50845549
   0.41689770  0.44174512  0.47944109
   0.44771751  0.37259599  0.45528048
   0.33481291  0.49683306  0.53871081
   0.39253694  0.53927589  0.50602289
   0.49623481  0.56798226  0.47684040
   0.46837376  0.63195794  0.51668073
   0.53932008  0.52735868  0.42192749
   0.53166365  0.47103528  0.58343122
   0.64137103  0.50296170  0.50975232
   0.45980321  0.41682831  0.47130256
   0.35968425  0.50252572  0.49733209
   0.46683652  0.58341178  0.51590261
Direct configuration=    36
   0.51567902  0.48421869  0.42426947
   0.58248489  0.51858812  0.44535678
   0.51030735  0.51481775  0.57655526
   0.50820166  0.44215943  0.55102680
   0.60732300  0.48689700  0.54283861
   0.67659083  0.46954538  0.50844808
   0.41689746  0.44174502  0.47944150
   0.44772066  0.37259816  0.45528000
   0.33481023  0.49683281  0.53871241
   0.39253776  0.53927059  0.50602604
   0.49623441  0.56798465  0.47684159
   0.46837192  0.63195673  0.51668583
   0.53932471  0.52736542  0.42192784
   0.53166027  0.47103748  0.58342519
   0.64137320  0.50295470  0.50975224
   0.45980550  0.41683006  0.47130245
   0.35968128  0.50252868  0.49733415
   0.46683637  0.58341315  0.51590563
Direct configuration=    37
   0.51568322  0.48423117  0.42426477
   0.58249050  0.51859334  0.44536113
   0.51030648  0.51481623  0.57655481
   0.50820197  0.44216098  0.55102519
   0.60732886  0.48689159  0.54283482
   0.67657777  0.46952515  0.50843798
   0.41689696  0.44174577  0.47943834
   0.44772549  0.37259916  0.45527827
   0.33481007  0.49683442  0.53871230
   0.39253709  0.53926366  0.50603488
   0.49623305  0.56798920  0.47684356
   0.46837095  0.63195920  0.51669403
   0.53932667  0.52737164  0.42192884
   0.53165925  0.47104088  0.58342033
   0.64137527  0.50294894  0.50975020
   0.45980651  0.41683209  0.47130327
   0.35967648  0.50252909  0.49733577
   0.46683393  0.58341133  0.51591139
