18
# CELL(abcABC):   37.79452    37.79452    37.79452    90.00000    90.00000    90.00000  Step:           0  Bead:       0 positions{angstrom}  cell{atomic_unit}
       H  1.03392e+01  9.64635e+00  8.49008e+00
       H  1.16501e+01  1.03499e+01  8.85357e+00
       H  1.01918e+01  1.02897e+01  1.15198e+01
       H  1.01764e+01  8.85076e+00  1.10388e+01
       H  1.22134e+01  9.77340e+00  1.08594e+01
       H  1.36405e+01  9.51980e+00  1.03080e+01
       H  8.36643e+00  8.76149e+00  9.56198e+00
       H  8.96367e+00  7.41550e+00  9.06625e+00
       H  6.40000e+00  9.95009e+00  1.07541e+01
       H  7.81957e+00  1.07631e+01  1.01263e+01
       H  9.90852e+00  1.13924e+01  9.55628e+00
       H  9.40590e+00  1.26631e+01  1.03164e+01
       O  1.07862e+01  1.05053e+01  8.42595e+00
       O  1.06297e+01  9.43712e+00  1.16657e+01
       O  1.28737e+01  1.00891e+01  1.02074e+01
       O  9.20929e+00  8.28133e+00  9.40365e+00
       O  7.20149e+00  1.00225e+01  9.95757e+00
       O  9.34087e+00  1.17040e+01  1.03114e+01
